ITEM: TIMESTEP
8
ITEM: NUMBER OF ATOMS
215
ITEM: BOX BOUNDS xy xz yz pp pp pp
0.0000000000000000e+00 3.0674292167872000e+01 7.6685730419680000e+00
0.0000000000000000e+00 1.7709810840323001e+01 7.6685730419680000e+00
0.0000000000000000e+00 1.2522727338723000e+01 4.4274527100809999e+00
ITEM: ATOMS id type x y z
1 1 1.10364e-13 -2.90817e-13 -2.08867e-13
2 1 19.17 12.5435 10.4334
3 1 14.0592 11.0672 0.00236097
4 1 15.3371 11.8058 2.08822
5 1 16.613 12.5354 4.17885
6 1 17.8927 13.2812 6.26136
7 1 19.17 14.0179 8.34828
8 1 20.4498 14.758 10.4355
9 1 10.2241 -2.42298e-13 -2.41283e-13
10 1 19.1712 14.0207 2.08714
11 1 12.7806 1.47601 4.1748
12 1 21.7288 15.4986 6.26137
13 1 15.3371 2.95618 8.34688
14 1 24.2837 16.9736 10.4334
15 1 11.5026 2.21388 0.000374487
16 1 12.7805 2.95166 2.08714
17 1 14.0602 3.68958 4.1729
18 1 15.3371 4.43786 6.26047
19 1 16.613 5.17446 8.34388
20 1 17.895 5.90361 10.4351
21 1 12.7806 4.42804 -1.84779e-13
22 1 14.0602 5.16411 2.0876
23 1 15.3371 5.91079 4.17956
24 1 16.6003 6.66712 6.26136
25 1 17.8866 11.8 8.34388
26 1 17.8868 7.38285 8.34316
27 1 16.6003 11.0427 6.26136
28 1 14.0613 9.5915 2.09724
29 1 16.6151 14.0185 2.08929
30 1 10.2234 1.47338 4.17444
31 1 19.1714 15.4961 6.26136
32 1 12.7823 2.95407 8.34828
33 1 21.7278 16.9736 10.4334
34 1 8.94654 2.21519 -0.00236097
35 1 10.2245 2.95179 2.08723
36 1 11.5043 3.69191 4.17444
37 1 12.7816 4.42862 6.26136
38 1 14.0613 5.17446 8.34388
39 1 15.3371 5.90405 10.4345
40 1 10.2234 4.42683 -0.00236097
41 1 11.5043 5.16634 2.08929
42 1 12.7877 5.90979 4.17885
43 1 14.074 6.66712 6.26136
44 1 15.3371 7.39638 8.32403
45 1 16.613 8.11831 10.4255
46 1 11.5029 6.64118 -2.10532e-13
47 1 12.7816 7.37948 2.08822
48 1 14.074 8.12564 4.1987
49 1 16.6003 9.58417 8.32403
50 1 17.8927 10.3303 10.4345
51 1 12.7823 8.85553 0.00236097
52 1 15.3371 10.3134 4.1987
53 1 7.66857 -2.7725e-13 -2.24469e-13
54 1 19.172 8.1154 10.4351
55 1 15.3371 7.38171 2.09724
56 1 20.45 5.90297 10.436
57 1 15.3371 4.42776 -0.000374487
58 1 16.6141 5.16411 2.0876
59 1 17.8866 5.90979 4.17885
60 1 19.1624 6.64638 6.26226
61 1 20.4489 7.37814 8.34983
62 1 21.7278 8.11743 10.4356
63 1 16.614 6.64202 0.00236097
64 1 17.8927 7.37948 2.08822
65 1 19.1624 8.11958 4.17885
66 1 20.4482 8.85491 6.26136
67 1 21.7249 9.59275 8.34828
68 1 23.0057 10.331 10.4355
69 1 17.892 8.85553 0.00236097
70 1 19.172 9.59441 2.0876
71 1 20.4489 10.3317 4.1729
72 1 21.7249 11.0684 6.26137
73 1 23.0057 11.8061 8.3482
74 1 24.2842 12.5442 10.4359
75 1 19.1712 11.0685 -0.000374487
76 1 20.45 11.8068 2.0867
77 1 21.7278 12.5446 4.17465
78 1 23.0057 13.2824 6.2617
79 1 19.172 5.16635 8.34983
80 1 14.0603 6.64202 0.00236097
81 1 17.8927 4.42862 6.26136
82 1 15.3371 2.95104 2.0867
83 1 16.6003 8.12564 4.1987
84 1 17.8634 8.85491 6.26136
85 1 19.1624 9.59023 8.34388
86 1 20.448 10.33 10.4334
87 1 15.3371 8.85491 0.0048216
88 1 16.613 9.5915 2.09724
89 1 17.8868 10.327 4.17956
90 1 19.1624 11.0634 6.26047
91 1 20.4456 11.8043 8.34688
92 1 21.7273 12.5442 10.4359
93 1 16.6151 11.0672 0.00236097
94 1 17.895 11.8062 2.0876
95 1 19.172 12.5435 4.1729
96 1 20.448 13.2801 6.26137
97 1 21.7273 14.0205 8.3482
98 1 23.0057 14.7586 10.4359
99 1 12.7806 -2.94471e-13 -1.88883e-13
100 1 21.7274 14.0204 2.08743
101 1 15.3371 1.47557 4.17465
102 1 24.2826 15.4986 6.26137
103 1 17.892 2.95407 8.34828
104 1 26.8397 16.9715 10.4356
105 1 14.0589 2.21406 -1.96828e-13
106 1 16.6141 3.68958 4.1729
107 1 24.2842 14.0205 8.3482
108 1 17.8938 14.7582 10.4356
109 1 15.3371 13.2719 6.26226
110 1 25.5658 11.8043 8.34688
111 1 11.5043 12.5435 10.4334
112 1 6.39029 11.0683 -1.71918e-13
113 1 7.66857 11.8063 2.08743
114 1 8.94645 12.5446 4.17465
115 1 25.5635 13.2801 6.26137
116 1 11.5043 14.0179 8.34828
117 1 12.7805 14.7582 10.4356
118 1 2.55657 -3.14646e-13 -2.46093e-13
119 1 11.5031 14.0207 2.08714
120 1 5.11371 1.47338 4.17444
121 1 14.0603 15.4936 6.26136
122 1 7.66857 2.95189 8.34807
123 1 16.6154 16.9718 10.4353
124 1 3.83455 2.21388 0.000374487
125 1 5.11266 2.95179 2.08723
126 1 6.39013 3.68934 4.17453
127 1 7.66857 4.42745 6.26103
128 1 8.94645 5.16524 8.34807
129 1 10.2243 5.90297 10.436
130 1 5.11371 4.42683 -0.00236097
131 1 6.39013 5.16556 2.08684
132 1 7.66857 5.90367 4.17453
133 1 8.94944 11.0684 6.26137
134 1 8.94944 6.64139 6.26136
135 1 7.66857 10.3303 4.1748
136 1 5.11204 8.85432 -1.60637e-13
137 1 8.94686 14.0204 2.08743
138 1 17.8937 1.47601 4.1748
139 1 11.5029 15.4961 6.26136
140 1 5.11204 2.95144 8.34793
141 1 14.0589 16.9718 10.4353
142 1 1.27829 2.21406 -2.28333e-13
143 1 17.8938 2.95166 2.08714
144 1 3.83284 3.69191 4.17444
145 1 5.11081 4.42975 6.26136
146 1 21.7278 5.16524 8.34807
147 1 7.66857 5.90349 10.4353
148 1 17.8937 4.42804 -1.81867e-13
149 1 3.83284 5.16634 2.08929
150 1 5.10845 5.90554 4.17585
151 1 21.7249 6.64139 6.26136
152 1 7.66857 7.37948 8.34793
153 1 8.94645 8.11743 10.4356
154 1 19.1714 6.64118 -1.79119e-13
155 1 5.11081 7.37985 2.08929
156 1 21.7249 8.11706 4.17444
157 1 7.66857 8.85491 6.26136
158 1 8.94944 9.59275 8.34828
159 1 10.2263 10.33 10.4334
160 1 21.7278 9.59239 2.08714
161 1 16.6141 14.0202 8.34983
162 1 10.2254 7.37814 8.34983
163 1 6.39168 6.64034 -0.00236097
164 1 11.5023 5.16635 8.34983
165 1 12.7793 5.90361 10.4351
166 1 7.66857 4.42745 -0.0048216
167 1 8.94702 5.16556 2.08684
168 1 10.2287 5.90554 4.17585
169 1 11.5119 6.64638 6.26226
170 1 12.7875 7.38285 8.34316
171 1 14.0613 8.11831 10.4255
172 1 8.94547 6.64034 -0.00236097
173 1 10.2263 7.37985 2.08929
174 1 11.5119 8.11958 4.17885
175 1 12.8109 8.85491 6.26136
176 1 14.074 9.58417 8.32403
177 1 15.3371 10.3281 10.4255
178 1 10.2251 8.85432 -2.31455e-13
179 1 11.5023 9.59441 2.0876
180 1 12.7875 10.327 4.17956
181 1 14.074 11.0427 6.26136
182 1 15.3371 11.799 8.34316
183 1 16.6141 12.5457 10.4351
184 1 11.5031 11.0685 -0.000374487
185 1 12.7793 11.8062 2.0876
186 1 14.0613 12.5354 4.17885
187 1 10.2263 4.42975 6.26136
188 1 11.5023 8.1154 10.4351
189 1 8.94702 3.68934 4.17453
190 1 6.3906 2.21519 -0.00236097
191 1 7.66857 7.37877 2.08723
192 1 8.94944 8.11706 4.17444
193 1 10.2261 8.85491 6.26136
194 1 11.5119 9.59023 8.34388
195 1 12.7816 10.3303 10.4345
196 1 7.66857 8.8546 0.000374487
197 1 8.94645 9.59239 2.08714
198 1 10.2254 10.3317 4.1729
199 1 11.5119 11.0634 6.26047
200 1 12.7877 11.8 8.34388
201 1 14.0602 12.5457 10.4351
202 1 8.94686 11.0683 -2.37987e-13
203 1 10.2243 11.8068 2.0867
204 1 11.5023 12.5435 4.1729
205 1 12.7816 13.2812 6.26136
206 1 14.0602 14.0202 8.34983
207 1 15.3371 14.7588 10.436
208 1 5.11306 -2.92313e-13 -2.23767e-13
209 1 14.0592 14.0185 2.08929
210 1 7.66857 1.47127 4.17585
211 1 16.614 15.4936 6.26136
212 1 10.2251 2.95144 8.34793
213 1 19.1717 16.9715 10.4356
214 1 7.66857 2.95123 2.08684
215 1 25.5616 14.758 10.4355
