ITEM: TIMESTEP
0
ITEM: NUMBER OF ATOMS
215
ITEM: BOX BOUNDS xy xz yz pp pp pp
0.0000000000000000e+00 3.0674292167872000e+01 7.6685730419680000e+00
0.0000000000000000e+00 1.7709810840323001e+01 7.6685730419680000e+00
0.0000000000000000e+00 1.2522727338723000e+01 4.4274527100809999e+00
ITEM: ATOMS id type xsu ysu zsu c_peratom
1 1                    0                    0                    0     -3.6985662056745
2 1                  0.5    0.666666666666629    0.833333333333258    -3.69793559960108
3 1    0.500000000000114    0.833333333333258                    0    -3.69793559961184
4 1                  0.5    0.833333333333258    0.166666666666742    -3.69689587206878
5 1                  0.5    0.833333333333258    0.333333333333371    -3.74078033524189
6 1    0.500000000000114    0.833333333333371                  0.5    -3.69689587207361
7 1                  0.5    0.833333333333258    0.666666666666629    -3.69793559960175
8 1                  0.5    0.833333333333371    0.833333333333258    -3.69856620567255
9 1    0.666666666666629                    0                    0     -3.6985662056716
10 1    0.666666666666742                    0    0.166666666666629    -3.69856620567136
11 1    0.666666666666742                    0    0.333333333333371    -3.69856620566928
12 1    0.666666666666742                    0                  0.5    -3.69793559960182
13 1    0.666666666666629                    0    0.666666666666629      -3.694943226985
14 1    0.666666666666742                    0    0.833333333333258    -3.69793559960557
15 1    0.666666666666629    0.166666666666629                    0    -3.69856620567067
16 1    0.666666666666742    0.166666666666742    0.166666666666629    -3.69856620566942
17 1    0.666666666666742    0.166666666666629    0.333333333333371     -3.6900831235161
18 1    0.666666666666629    0.166666666666742                  0.5    -3.74078033524523
19 1    0.666666666666742    0.166666666666629    0.666666666666629    -3.74078033524492
20 1    0.666666666666742    0.166666666666629    0.833333333333258    -3.69008312351927
21 1    0.666666666666629    0.333333333333371                    0    -3.69856620566836
22 1    0.666666666666742    0.333333333333371    0.166666666666629    -3.69008312352122
23 1    0.666666666666742    0.333333333333258    0.333333333333371    -3.79679417774071
24 1    0.666666666666742    0.333333333333371                  0.5     -3.4946256576828
25 1                  0.5    0.666666666666629    0.666666666666629    -3.74078033524731
26 1    0.666666666666742    0.333333333333258    0.666666666666629    -3.79679417773765
27 1    0.500000000000114    0.666666666666629                  0.5    -3.49462565768627
28 1                  0.5    0.666666666666742    0.166666666666629     -3.7407803352466
29 1                  0.5                    0    0.166666666666629    -3.69793559959922
30 1                  0.5                    0    0.333333333333371    -3.69793559960317
31 1                  0.5                    0                  0.5    -3.69856620567138
32 1                  0.5                    0    0.666666666666629    -3.69793559960131
33 1    0.500000000000114                    0    0.833333333333258    -3.69793559960043
34 1                  0.5    0.166666666666629                    0    -3.69793559960982
35 1                  0.5    0.166666666666742    0.166666666666629    -3.69856620567165
36 1                  0.5    0.166666666666629    0.333333333333371    -3.69793559960044
37 1                  0.5    0.166666666666742                  0.5     -3.6968958720722
38 1                  0.5    0.166666666666629    0.666666666666629    -3.74078033524601
39 1                  0.5    0.166666666666629    0.833333333333258    -3.69689587206977
40 1                  0.5    0.333333333333371                    0    -3.69793559961161
41 1                  0.5    0.333333333333371    0.166666666666629    -3.69793559960223
42 1                  0.5    0.333333333333258    0.333333333333371     -3.7407803352457
43 1    0.500000000000114    0.333333333333371                  0.5    -3.49462565768746
44 1                  0.5    0.333333333333258    0.666666666666629    -3.49462565768421
45 1                  0.5    0.333333333333371    0.833333333333258    -3.74078033524393
46 1                  0.5                  0.5                    0    -3.69856620567072
47 1                  0.5                  0.5    0.166666666666629    -3.69689587206777
48 1                  0.5                  0.5    0.333333333333371    -3.49462565768268
49 1                  0.5                  0.5    0.666666666666629    -3.49462565767983
50 1    0.500000000000114                  0.5    0.833333333333258    -3.69689587207108
51 1                  0.5    0.666666666666629                    0    -3.69793559960895
52 1                  0.5    0.666666666666629    0.333333333333371     -3.4946256576853
53 1                  0.5                    0                    0     -3.6985662056713
54 1    0.666666666666629    0.333333333333371    0.833333333333258    -3.69008312352064
55 1    0.666666666666742                  0.5    0.166666666666629    -3.74078033524424
56 1    0.833333333333371    0.166666666666629    0.833333333333258    -3.69851090831799
57 1    0.833333333333371    0.333333333333371                    0    -3.69856620567009
58 1    0.833333333333371    0.333333333333371    0.166666666666629    -3.69008312352011
59 1    0.833333333333371    0.333333333333258    0.333333333333371    -3.74078033524616
60 1    0.833333333333371    0.333333333333371                  0.5    -3.74078033524533
61 1    0.833333333333371    0.333333333333258    0.666666666666629    -3.69008312351583
62 1    0.833333333333371    0.333333333333371    0.833333333333258    -3.69856620567062
63 1    0.833333333333371                  0.5                    0    -3.69793559961055
64 1    0.833333333333371                  0.5    0.166666666666742    -3.69689587206511
65 1    0.833333333333371                  0.5    0.333333333333371    -3.74078033524312
66 1    0.833333333333371                  0.5                  0.5    -3.69689587207466
67 1    0.833333333333371                  0.5    0.666666666666629    -3.69793559960168
68 1    0.833333333333371                  0.5    0.833333333333258    -3.69856620567325
69 1    0.833333333333371    0.666666666666629                    0    -3.69793559960692
70 1    0.833333333333371    0.666666666666742    0.166666666666629    -3.69008312352121
71 1    0.833333333333371    0.666666666666629    0.333333333333371    -3.69008312352133
72 1    0.833333333333371    0.666666666666629                  0.5    -3.69793559960699
73 1    0.833333333333371    0.666666666666629    0.666666666666629    -3.69856620567278
74 1    0.833333333333371    0.666666666666629    0.833333333333258    -3.69856620567329
75 1    0.833333333333371    0.833333333333258                    0    -3.69856620566945
76 1    0.833333333333371    0.833333333333258    0.166666666666742    -3.69851090831888
77 1    0.833333333333371    0.833333333333258    0.333333333333371    -3.69856620567236
78 1    0.833333333333371    0.833333333333371                  0.5     -3.6985662056701
79 1    0.833333333333371    0.166666666666629    0.666666666666629    -3.69008312351683
80 1    0.666666666666742                  0.5                    0    -3.69793559961093
81 1    0.833333333333371    0.166666666666742                  0.5    -3.69689587206911
82 1    0.833333333333371    0.166666666666742    0.166666666666629    -3.69851090831884
83 1    0.666666666666742                  0.5    0.333333333333371    -3.49462565768144
84 1    0.666666666666742                  0.5                  0.5    -3.49462565768987
85 1    0.666666666666629                  0.5    0.666666666666629     -3.7407803352463
86 1    0.666666666666742                  0.5    0.833333333333258    -3.69793559959849
87 1    0.666666666666629    0.666666666666629                    0    -3.69494322698789
88 1    0.666666666666742    0.666666666666742    0.166666666666629     -3.7407803352465
89 1    0.666666666666742    0.666666666666629    0.333333333333371    -3.79679417773971
90 1    0.666666666666742    0.666666666666629                  0.5    -3.74078033524313
91 1    0.666666666666742    0.666666666666629    0.666666666666629    -3.69494322698435
92 1    0.666666666666742    0.666666666666629    0.833333333333258    -3.69856620566853
93 1    0.666666666666742    0.833333333333258                    0     -3.6979355996091
94 1    0.666666666666742    0.833333333333371    0.166666666666629    -3.69008312352102
95 1    0.666666666666742    0.833333333333258    0.333333333333371     -3.6900831235139
96 1    0.666666666666742    0.833333333333371                  0.5    -3.69793559960546
97 1    0.666666666666742    0.833333333333258    0.666666666666629    -3.69856620566995
98 1    0.666666666666742    0.833333333333371    0.833333333333258    -3.69856620566937
99 1    0.833333333333371                    0                    0     -3.6985662056684
100 1    0.833333333333371                    0    0.166666666666629    -3.69856620567022
101 1    0.833333333333371                    0    0.333333333333371    -3.69856620567033
102 1    0.833333333333371                    0                  0.5    -3.69793559960281
103 1    0.833333333333371                    0    0.666666666666629    -3.69793559960129
104 1    0.833333333333371                    0    0.833333333333258    -3.69856620567333
105 1    0.833333333333371    0.166666666666629                    0    -3.69856620567252
106 1    0.833333333333371    0.166666666666629    0.333333333333371    -3.69008312351727
107 1    0.833333333333371    0.833333333333258    0.666666666666629    -3.69856620567057
108 1    0.333333333333371    0.833333333333371    0.833333333333258    -3.69856620566935
109 1    0.333333333333371    0.833333333333371                  0.5    -3.74078033524289
110 1                    0    0.666666666666629    0.666666666666629    -3.69494322699008
111 1                    0    0.666666666666629    0.833333333333258    -3.69793559960124
112 1                    0    0.833333333333258                    0     -3.6985662056719
113 1                    0    0.833333333333371    0.166666666666629    -3.69856620567235
114 1                    0    0.833333333333258    0.333333333333371    -3.69856620567241
115 1                    0    0.833333333333371                  0.5    -3.69793559960318
116 1                    0    0.833333333333258    0.666666666666629    -3.69793559959824
117 1                    0    0.833333333333371    0.833333333333258    -3.69856620567271
118 1    0.166666666666629                    0                    0    -3.69856620567178
119 1    0.166666666666742                    0    0.166666666666629    -3.69856620566905
120 1    0.166666666666742                    0    0.333333333333371    -3.69793559960299
121 1    0.166666666666629                    0                  0.5    -3.69793559960365
122 1    0.166666666666629                    0    0.666666666666629    -3.69856620567008
123 1    0.166666666666742                    0    0.833333333333258    -3.69856620567319
124 1    0.166666666666629    0.166666666666629                    0    -3.69856620567137
125 1    0.166666666666742    0.166666666666742    0.166666666666629    -3.69856620567127
126 1    0.166666666666629    0.166666666666629    0.333333333333371    -3.69856620567074
127 1    0.166666666666629    0.166666666666742                  0.5    -3.69856620567033
128 1    0.166666666666742    0.166666666666629    0.666666666666629    -3.69856620567347
129 1    0.166666666666742    0.166666666666629    0.833333333333258    -3.69851090832027
130 1    0.166666666666629    0.333333333333371                    0    -3.69793559961016
131 1    0.166666666666629    0.333333333333371    0.166666666666629    -3.69856620567397
132 1    0.166666666666742    0.333333333333258    0.333333333333371     -3.6985662056673
133 1 1.13686837721616e-13    0.666666666666629                  0.5    -3.69793559960502
134 1    0.166666666666742    0.333333333333371                  0.5    -3.69793559960416
135 1                    0    0.666666666666629    0.333333333333371    -3.69856620567191
136 1                    0    0.666666666666629                    0    -3.69856620567123
137 1                    0                    0    0.166666666666629    -3.69856620567312
138 1                    0                    0    0.333333333333371    -3.69856620566971
139 1                    0                    0                  0.5    -3.69856620567084
140 1                    0                    0    0.666666666666629    -3.69856620567091
141 1                    0                    0    0.833333333333258    -3.69856620567361
142 1                    0    0.166666666666629                    0    -3.69856620567292
143 1                    0    0.166666666666742    0.166666666666629    -3.69856620567096
144 1                    0    0.166666666666629    0.333333333333371    -3.69793559960354
145 1                    0    0.166666666666742                  0.5    -3.69793559960185
146 1                    0    0.166666666666629    0.666666666666629    -3.69856620567217
147 1                    0    0.166666666666629    0.833333333333258    -3.69856620567285
148 1 -5.6843418860808e-14    0.333333333333371                    0    -3.69856620567266
149 1                    0    0.333333333333371    0.166666666666629    -3.69793559960186
150 1                    0    0.333333333333258    0.333333333333371    -3.69494322698064
151 1                    0    0.333333333333371                  0.5    -3.69793559960064
152 1                    0    0.333333333333258    0.666666666666629    -3.69856620566954
153 1                    0    0.333333333333371    0.833333333333258    -3.69856620567067
154 1                    0                  0.5                    0    -3.69856620567246
155 1                    0                  0.5    0.166666666666629    -3.69793559959921
156 1                    0                  0.5    0.333333333333371    -3.69793559960186
157 1                    0                  0.5                  0.5    -3.69856620567043
158 1                    0                  0.5    0.666666666666629    -3.69793559960392
159 1                    0                  0.5    0.833333333333258     -3.6979355996034
160 1                    0    0.666666666666742    0.166666666666629    -3.69856620566985
161 1    0.333333333333371    0.833333333333258    0.666666666666629    -3.69008312351708
162 1    0.166666666666629    0.333333333333258    0.666666666666629    -3.69008312351615
163 1    0.166666666666629                  0.5                    0    -3.69793559961175
164 1    0.333333333333371    0.166666666666629    0.666666666666629    -3.69008312351612
165 1    0.333333333333371    0.166666666666629    0.833333333333258    -3.69008312351967
166 1    0.333333333333371    0.333333333333371                    0     -3.6949432269876
167 1    0.333333333333371    0.333333333333371    0.166666666666629    -3.69856620567251
168 1    0.333333333333371    0.333333333333258    0.333333333333371    -3.69494322698333
169 1    0.333333333333371    0.333333333333371                  0.5    -3.74078033524029
170 1    0.333333333333371    0.333333333333258    0.666666666666629    -3.79679417773802
171 1    0.333333333333371    0.333333333333371    0.833333333333258     -3.7407803352452
172 1    0.333333333333371                  0.5                    0    -3.69793559960914
173 1    0.333333333333371                  0.5    0.166666666666629    -3.69793559960374
174 1    0.333333333333371                  0.5    0.333333333333371    -3.74078033523946
175 1    0.333333333333371                  0.5                  0.5    -3.49462565768394
176 1    0.333333333333371                  0.5    0.666666666666629    -3.49462565768597
177 1    0.333333333333371                  0.5    0.833333333333258    -3.74078033524786
178 1    0.333333333333371    0.666666666666629                    0     -3.6985662056738
179 1    0.333333333333371    0.666666666666742    0.166666666666629    -3.69008312351976
180 1    0.333333333333371    0.666666666666629    0.333333333333371    -3.79679417773899
181 1    0.333333333333371    0.666666666666629                  0.5    -3.49462565768847
182 1    0.333333333333371    0.666666666666629    0.666666666666629    -3.79679417774011
183 1    0.333333333333371    0.666666666666629    0.833333333333258    -3.69008312352375
184 1    0.333333333333371    0.833333333333258                    0    -3.69856620567165
185 1    0.333333333333371    0.833333333333371    0.166666666666629    -3.69008312352148
186 1    0.333333333333371    0.833333333333258    0.333333333333371    -3.74078033524535
187 1    0.333333333333371    0.166666666666742                  0.5    -3.69793559960735
188 1    0.166666666666742    0.333333333333371    0.833333333333258    -3.69008312351602
189 1    0.333333333333371    0.166666666666629    0.333333333333371    -3.69856620567343
190 1    0.333333333333371    0.166666666666629                    0    -3.69793559961023
191 1    0.166666666666742                  0.5    0.166666666666629    -3.69856620566776
192 1    0.166666666666742                  0.5    0.333333333333371    -3.69793559959993
193 1    0.166666666666629                  0.5                  0.5    -3.69689587207378
194 1    0.166666666666629                  0.5    0.666666666666629    -3.74078033524253
195 1    0.166666666666742                  0.5    0.833333333333258    -3.69689587206922
196 1    0.166666666666629    0.666666666666629                    0    -3.69856620567184
197 1    0.166666666666742    0.666666666666742    0.166666666666629    -3.69856620567211
198 1    0.166666666666629    0.666666666666629    0.333333333333371    -3.69008312352119
199 1    0.166666666666742    0.666666666666629                  0.5    -3.74078033524395
200 1    0.166666666666742    0.666666666666629    0.666666666666629    -3.74078033524493
201 1    0.166666666666742    0.666666666666629    0.833333333333258    -3.69008312352227
202 1    0.166666666666742    0.833333333333258                    0    -3.69856620567154
203 1    0.166666666666629    0.833333333333371    0.166666666666629    -3.69851090831904
204 1    0.166666666666742    0.833333333333258    0.333333333333371    -3.69008312351666
205 1    0.166666666666742    0.833333333333371                  0.5    -3.69689587207331
206 1    0.166666666666742    0.833333333333258    0.666666666666629    -3.69008312352062
207 1    0.166666666666629    0.833333333333371    0.833333333333258    -3.69851090831597
208 1    0.333333333333371                    0                    0    -3.69856620566964
209 1    0.333333333333371                    0    0.166666666666629    -3.69793559959687
210 1    0.333333333333371                    0    0.333333333333371    -3.69494322698012
211 1    0.333333333333371                    0                  0.5     -3.6979355996035
212 1    0.333333333333258                    0    0.666666666666629    -3.69856620567259
213 1    0.333333333333371                    0    0.833333333333258     -3.6985662056702
214 1    0.333333333333371    0.166666666666742    0.166666666666629    -3.69856620567188
215 1    0.833333333333371    0.833333333333371    0.833333333333258    -3.69856620567116
ITEM: TIMESTEP
8
ITEM: NUMBER OF ATOMS
215
ITEM: BOX BOUNDS xy xz yz pp pp pp
0.0000000000000000e+00 3.0674292167872000e+01 7.6685730419680000e+00
0.0000000000000000e+00 1.7709810840323001e+01 7.6685730419680000e+00
0.0000000000000000e+00 1.2522727338723000e+01 4.4274527100809999e+00
ITEM: ATOMS id type xsu ysu zsu c_peratom
1 1                    0                    0                    0    -3.69731944713934
2 1    0.500000484736461    0.666650581813315    0.833160398831751    -3.69842426299489
3 1    0.500000484736461    0.833160398831751 0.000188534618473568    -3.69842426300079
4 1                  0.5    0.833245368927464    0.166754631072536    -3.68532846164454
5 1    0.500071738107067    0.832525698582799    0.333701281655067    -3.73088234478739
6 1                  0.5    0.833245368927464                  0.5    -3.68532846163856
7 1    0.500000484736461    0.833160398831751    0.666650581813315    -3.69842426299914
8 1    0.500026769821829     0.83332441005939     0.83332441005939    -3.69933186240922
9 1    0.666622409833622                    0                    0    -3.69872952789656
10 1    0.666633883768895 2.99046248528612e-05    0.166668105803069    -3.70053560172755
11 1    0.666622409833622                    0    0.333377590166378    -3.69872952790689
12 1    0.666650581813315 0.000188534618587255    0.500000484736347    -3.69842426299745
13 1    0.666538324142834 0.000385027571610408    0.666538324142721    -3.69763076700193
14 1    0.666650581813315 0.000188534618587255    0.833160398831751    -3.69842426299459
15 1    0.666633883768895    0.166668105803069 2.99046248528612e-05    -3.70053560173073
16 1    0.666633883768895    0.166668105803069    0.166668105803069    -3.70053560172613
17 1    0.666773720906804    0.166705139620603    0.333226279093196      -3.689826920798
18 1    0.666298718344933    0.167474301417087    0.499928261893047    -3.73088234478311
19 1    0.666298718344933    0.167474301417087    0.666298718344933    -3.73088234478847
20 1    0.666773720906804    0.166705139620603    0.833294860379397    -3.68982692079986
21 1    0.666622409833622    0.333377590166378                    0    -3.69872952789669
22 1    0.666773720906804    0.333226279093196    0.166705139620603    -3.68982692079867
23 1    0.666241819140055    0.333758180859945    0.333758180859945     -3.7985165729927
24 1    0.664713451667012    0.335286548332988                  0.5    -3.51906459236397
25 1    0.499928261893047    0.666298718344933    0.666298718344933    -3.73088234478703
26 1    0.666241819140055    0.333758180859945    0.666241819139941    -3.79851657299353
27 1                  0.5    0.664713451667012                  0.5    -3.51906459236623
28 1    0.499928261893047    0.666298718344933    0.167474301417087    -3.73088234478611
29 1    0.499999515263653 -0.000188534618587255    0.166839601168249    -3.69842426299581
30 1    0.499999515263653 -0.000188534618587255    0.333349418186685    -3.69842426299745
31 1                  0.5                    0                  0.5    -3.70003745854416
32 1    0.500000484736461 0.000188534618473568    0.666650581813315    -3.69842426299827
33 1    0.500000484736461 0.000188534618587255    0.833160398831751    -3.69842426299456
34 1    0.499999515263653    0.166839601168249 -0.000188534618587255    -3.69842426299934
35 1    0.499973230178171     0.16667558994061     0.16667558994061    -3.69933186240566
36 1    0.499999515263653    0.166839601168249    0.333349418186685    -3.69842426300113
37 1                  0.5    0.166754631072536                  0.5    -3.68532846163923
38 1    0.499928261893047    0.167474301417087    0.666298718344933    -3.73088234478307
39 1                  0.5    0.166754631072536    0.833245368927464    -3.68532846164159
40 1    0.499999515263653    0.333349418186685 -0.000188534618587255    -3.69842426299668
41 1    0.499999515263653    0.333349418186685    0.166839601168249    -3.69842426299554
42 1    0.500071738107067    0.333701281655067    0.333701281655067      -3.730882344786
43 1                  0.5    0.335286548332988                  0.5    -3.51906459236142
44 1                  0.5    0.335286548332988    0.664713451667012     -3.5190645923597
45 1    0.500071738107067    0.333701281655067    0.832525698582799    -3.73088234478334
46 1                  0.5                  0.5                    0    -3.70003745854383
47 1                  0.5                  0.5    0.166754631072536    -3.68532846164179
48 1                  0.5                  0.5    0.335286548332988    -3.51906459236115
49 1                  0.5                  0.5    0.664713451667012    -3.51906459235954
50 1                  0.5                  0.5    0.833245368927464    -3.68532846164108
51 1    0.500000484736461    0.666650581813315 0.000188534618587255    -3.69842426299893
52 1                  0.5    0.664713451667012    0.335286548332988    -3.51906459235849
53 1                  0.5                    0                    0    -3.70003745854487
54 1    0.666773720906804    0.333226279093196    0.833294860379397    -3.68982692079712
55 1    0.666298718344933    0.499928261893047    0.167474301417087     -3.7308823447844
56 1     0.83336677516445     0.16663322483555    0.833366775164336    -3.70197373230135
57 1    0.833331894196931    0.333366116231105 -2.99046249097046e-05     -3.7005356017284
58 1    0.833294860379397    0.333226279093196    0.166705139620603    -3.68982692079818
59 1    0.832525698582913    0.333701281655067    0.333701281655067    -3.73088234478664
60 1    0.832525698582913    0.333701281655067    0.500071738106953    -3.73088234478054
61 1    0.833294860379397    0.333226279093196    0.666773720906804     -3.6898269207979
62 1    0.833331894196931    0.333366116231105    0.833331894196817    -3.70053560172936
63 1    0.833160398831865    0.500000484736347 0.000188534618587255    -3.69842426300096
64 1    0.833245368927464                  0.5    0.166754631072536    -3.68532846164182
65 1    0.832525698582913    0.500071738106953    0.333701281655067    -3.73088234478743
66 1    0.833245368927464                  0.5                  0.5    -3.68532846164069
67 1    0.833160398831865    0.500000484736347    0.666650581813315    -3.69842426299897
68 1     0.83332441005939    0.500026769821829     0.83332441005939    -3.69933186240783
69 1    0.833160398831865    0.666650581813315 0.000188534618587255    -3.69842426299773
70 1    0.833294860379397    0.666773720906804    0.166705139620603     -3.6898269207971
71 1    0.833294860379397    0.666773720906804    0.333226279093196    -3.68982692079953
72 1    0.833160398831865    0.666650581813315    0.500000484736347    -3.69842426300208
73 1    0.833356056383309    0.666643943616691    0.666643943616691    -3.69790009393597
74 1    0.833356056383309    0.666643943616691    0.833356056383309     -3.6979000939356
75 1    0.833331894196931    0.833331894196817 -2.99046249097046e-05    -3.70053560172805
76 1     0.83336677516445    0.833366775164336     0.16663322483555    -3.70197373230067
77 1    0.833331894196931    0.833331894196817    0.333366116231105    -3.70053560172308
78 1     0.83332441005939     0.83332441005939    0.500026769821829    -3.69933186240755
79 1    0.833294860379397    0.166705139620603    0.666773720906804    -3.68982692079689
80 1    0.666650581813315    0.500000484736347 0.000188534618587255    -3.69842426300072
81 1    0.833245368927464    0.166754631072536                  0.5    -3.68532846164175
82 1     0.83336677516445    0.166633224835664     0.16663322483555    -3.70197373230113
83 1    0.664713451667012                  0.5    0.335286548332988       -3.51906459236
84 1    0.664713451667012                  0.5                  0.5    -3.51906459236085
85 1    0.666298718344933    0.499928261893047    0.666298718344933    -3.73088234478865
86 1    0.666650581813315    0.500000484736347    0.833160398831751    -3.69842426299496
87 1    0.666538324142834    0.666538324142721 0.000385027571610408    -3.69763076700022
88 1    0.666298718344933    0.666298718344933    0.167474301417087    -3.73088234478223
89 1    0.666241819140055    0.666241819139941    0.333758180859945    -3.79851657299419
90 1    0.666298718344933    0.666298718344933    0.499928261893047    -3.73088234478362
91 1    0.666538324142834    0.666538324142721    0.666538324142721    -3.69763076700478
92 1    0.666643943616691    0.666643943616691    0.833356056383309    -3.69790009393633
93 1    0.666650581813315    0.833160398831751 0.000188534618587255    -3.69842426299937
94 1    0.666773720906804    0.833294860379397    0.166705139620603    -3.68982692079665
95 1    0.666773720906804    0.833294860379397    0.333226279093196    -3.68982692079993
96 1    0.666650581813315    0.833160398831751    0.500000484736347    -3.69842426299755
97 1    0.666643943616691    0.833356056383309    0.666643943616691     -3.6979000939363
98 1    0.666643943616691    0.833356056383309    0.833356056383309    -3.69790009393711
99 1    0.833308327425243                    0                    0    -3.69813453425954
100 1    0.833308327425243                    0    0.166691672574757    -3.69813453425316
101 1    0.833331894196931 -2.99046249097046e-05    0.333366116231105    -3.70053560172144
102 1    0.833160398831865 0.000188534618587255    0.500000484736347    -3.69842426300025
103 1    0.833160398831865 0.000188534618473568    0.666650581813315     -3.6984242629989
104 1    0.833331894196931 -2.99046249097046e-05    0.833331894196817    -3.70053560172815
105 1    0.833308327425243    0.166691672574757                    0    -3.69813453425897
106 1    0.833294860379397    0.166705139620603    0.333226279093196    -3.68982692079906
107 1    0.833356056383309    0.833356056383309    0.666643943616691    -3.69790009393714
108 1    0.333366116231218    0.833331894196817    0.833331894196817    -3.70053560172693
109 1    0.333701281655067    0.832525698582799    0.500071738106953    -3.73088234478246
110 1 0.000385027571724095    0.666538324142721    0.666538324142721    -3.69763076699999
111 1 0.000188534618587255    0.666650581813315    0.833160398831751    -3.69842426299481
112 1                    0    0.833308327425243                    0    -3.69813453425972
113 1                    0    0.833308327425243    0.166691672574757    -3.69813453425586