ITEM: TIMESTEP
0
ITEM: NUMBER OF ATOMS
215
ITEM: BOX BOUNDS xy xz yz pp pp pp
0.0000000000000000e+00 3.0674292167872000e+01 7.6685730419680000e+00
0.0000000000000000e+00 1.7709810840323001e+01 7.6685730419680000e+00
0.0000000000000000e+00 1.2522727338723000e+01 4.4274527100809999e+00
ITEM: ATOMS id type x y z
1 1 0 0 0
2 1 19.1714 12.5444 10.4356
3 1 14.0591 11.0686 0
4 1 15.3371 11.8065 2.08712
5 1 16.6152 12.5444 4.17424
6 1 17.8933 13.2824 6.26136
7 1 19.1714 14.0203 8.34848
8 1 20.4495 14.7582 10.4356
9 1 10.2248 0 0
10 1 19.1714 14.0203 2.08712
11 1 12.781 1.47582 4.17424
12 1 21.7276 15.4961 6.26136
13 1 15.3371 2.95164 8.34848
14 1 24.2838 16.9719 10.4356
15 1 11.5029 2.21373 0
16 1 12.781 2.95164 2.08712
17 1 14.0591 3.68954 4.17424
18 1 15.3371 4.42745 6.26136
19 1 16.6152 5.16536 8.34848
20 1 17.8933 5.90327 10.4356
21 1 12.781 4.42745 0
22 1 14.0591 5.16536 2.08712
23 1 15.3371 5.90327 4.17424
24 1 16.6152 6.64118 6.26136
25 1 17.8933 11.8065 8.34848
26 1 17.8933 7.37909 8.34848
27 1 16.6152 11.0686 6.26136
28 1 14.0591 9.59281 2.08712
29 1 16.6152 14.0203 2.08712
30 1 10.2248 1.47582 4.17424
31 1 19.1714 15.4961 6.26136
32 1 12.781 2.95164 8.34848
33 1 21.7276 16.9719 10.4356
34 1 8.94667 2.21373 0
35 1 10.2248 2.95164 2.08712
36 1 11.5029 3.68954 4.17424
37 1 12.781 4.42745 6.26136
38 1 14.0591 5.16536 8.34848
39 1 15.3371 5.90327 10.4356
40 1 10.2248 4.42745 0
41 1 11.5029 5.16536 2.08712
42 1 12.781 5.90327 4.17424
43 1 14.0591 6.64118 6.26136
44 1 15.3371 7.37909 8.34848
45 1 16.6152 8.117 10.4356
46 1 11.5029 6.64118 0
47 1 12.781 7.37909 2.08712
48 1 14.0591 8.117 4.17424
49 1 16.6152 9.59281 8.34848
50 1 17.8933 10.3307 10.4356
51 1 12.781 8.85491 0
52 1 15.3371 10.3307 4.17424
53 1 7.66857 0 0
54 1 19.1714 8.117 10.4356
55 1 15.3371 7.37909 2.08712
56 1 20.4495 5.90327 10.4356
57 1 15.3371 4.42745 0
58 1 16.6152 5.16536 2.08712
59 1 17.8933 5.90327 4.17424
60 1 19.1714 6.64118 6.26136
61 1 20.4495 7.37909 8.34848
62 1 21.7276 8.117 10.4356
63 1 16.6152 6.64118 0
64 1 17.8933 7.37909 2.08712
65 1 19.1714 8.117 4.17424
66 1 20.4495 8.85491 6.26136
67 1 21.7276 9.59281 8.34848
68 1 23.0057 10.3307 10.4356
69 1 17.8933 8.85491 0
70 1 19.1714 9.59281 2.08712
71 1 20.4495 10.3307 4.17424
72 1 21.7276 11.0686 6.26136
73 1 23.0057 11.8065 8.34848
74 1 24.2838 12.5444 10.4356
75 1 19.1714 11.0686 0
76 1 20.4495 11.8065 2.08712
77 1 21.7276 12.5444 4.17424
78 1 23.0057 13.2824 6.26136
79 1 19.1714 5.16536 8.34848
80 1 14.0591 6.64118 0
81 1 17.8933 4.42745 6.26136
82 1 15.3371 2.95164 2.08712
83 1 16.6152 8.117 4.17424
84 1 17.8933 8.85491 6.26136
85 1 19.1714 9.59281 8.34848
86 1 20.4495 10.3307 10.4356
87 1 15.3371 8.85491 0
88 1 16.6152 9.59281 2.08712
89 1 17.8933 10.3307 4.17424
90 1 19.1714 11.0686 6.26136
91 1 20.4495 11.8065 8.34848
92 1 21.7276 12.5444 10.4356
93 1 16.6152 11.0686 0
94 1 17.8933 11.8065 2.08712
95 1 19.1714 12.5444 4.17424
96 1 20.4495 13.2824 6.26136
97 1 21.7276 14.0203 8.34848
98 1 23.0057 14.7582 10.4356
99 1 12.781 0 0
100 1 21.7276 14.0203 2.08712
101 1 15.3371 1.47582 4.17424
102 1 24.2838 15.4961 6.26136
103 1 17.8933 2.95164 8.34848
104 1 26.84 16.9719 10.4356
105 1 14.0591 2.21373 0
106 1 16.6152 3.68954 4.17424
107 1 24.2838 14.0203 8.34848
108 1 17.8933 14.7582 10.4356
109 1 15.3371 13.2824 6.26136
110 1 25.5619 11.8065 8.34848
111 1 11.5029 12.5444 10.4356
112 1 6.39048 11.0686 0
113 1 7.66857 11.8065 2.08712
114 1 8.94667 12.5444 4.17424
115 1 25.5619 13.2824 6.26136
116 1 11.5029 14.0203 8.34848
117 1 12.781 14.7582 10.4356
118 1 2.55619 0 0
119 1 11.5029 14.0203 2.08712
120 1 5.11238 1.47582 4.17424
121 1 14.0591 15.4961 6.26136
122 1 7.66857 2.95164 8.34848
123 1 16.6152 16.9719 10.4356
124 1 3.83429 2.21373 0
125 1 5.11238 2.95164 2.08712
126 1 6.39048 3.68954 4.17424
127 1 7.66857 4.42745 6.26136
128 1 8.94667 5.16536 8.34848
129 1 10.2248 5.90327 10.4356
130 1 5.11238 4.42745 0
131 1 6.39048 5.16536 2.08712
132 1 7.66857 5.90327 4.17424
133 1 8.94667 11.0686 6.26136
134 1 8.94667 6.64118 6.26136
135 1 7.66857 10.3307 4.17424
136 1 5.11238 8.85491 0
137 1 8.94667 14.0203 2.08712
138 1 17.8933 1.47582 4.17424
139 1 11.5029 15.4961 6.26136
140 1 5.11238 2.95164 8.34848
141 1 14.0591 16.9719 10.4356
142 1 1.2781 2.21373 0
143 1 17.8933 2.95164 2.08712
144 1 3.83429 3.68954 4.17424
145 1 5.11238 4.42745 6.26136
146 1 21.7276 5.16536 8.34848
147 1 7.66857 5.90327 10.4356
148 1 17.8933 4.42745 0
149 1 3.83429 5.16536 2.08712
150 1 5.11238 5.90327 4.17424
151 1 21.7276 6.64118 6.26136
152 1 7.66857 7.37909 8.34848
153 1 8.94667 8.117 10.4356
154 1 19.1714 6.64118 0
155 1 5.11238 7.37909 2.08712
156 1 21.7276 8.117 4.17424
157 1 7.66857 8.85491 6.26136
158 1 8.94667 9.59281 8.34848
159 1 10.2248 10.3307 10.4356
160 1 21.7276 9.59281 2.08712
161 1 16.6152 14.0203 8.34848
162 1 10.2248 7.37909 8.34848
163 1 6.39048 6.64118 0
164 1 11.5029 5.16536 8.34848
165 1 12.781 5.90327 10.4356
166 1 7.66857 4.42745 0
167 1 8.94667 5.16536 2.08712
168 1 10.2248 5.90327 4.17424
169 1 11.5029 6.64118 6.26136
170 1 12.781 7.37909 8.34848
171 1 14.0591 8.117 10.4356
172 1 8.94667 6.64118 0
173 1 10.2248 7.37909 2.08712
174 1 11.5029 8.117 4.17424
175 1 12.781 8.85491 6.26136
176 1 14.0591 9.59281 8.34848
177 1 15.3371 10.3307 10.4356
178 1 10.2248 8.85491 0
179 1 11.5029 9.59281 2.08712
180 1 12.781 10.3307 4.17424
181 1 14.0591 11.0686 6.26136
182 1 15.3371 11.8065 8.34848
183 1 16.6152 12.5444 10.4356
184 1 11.5029 11.0686 0
185 1 12.781 11.8065 2.08712
186 1 14.0591 12.5444 4.17424
187 1 10.2248 4.42745 6.26136
188 1 11.5029 8.117 10.4356
189 1 8.94667 3.68954 4.17424
190 1 6.39048 2.21373 0
191 1 7.66857 7.37909 2.08712
192 1 8.94667 8.117 4.17424
193 1 10.2248 8.85491 6.26136
194 1 11.5029 9.59281 8.34848
195 1 12.781 10.3307 10.4356
196 1 7.66857 8.85491 0
197 1 8.94667 9.59281 2.08712
198 1 10.2248 10.3307 4.17424
199 1 11.5029 11.0686 6.26136
200 1 12.781 11.8065 8.34848
201 1 14.0591 12.5444 10.4356
202 1 8.94667 11.0686 0
203 1 10.2248 11.8065 2.08712
204 1 11.5029 12.5444 4.17424
205 1 12.781 13.2824 6.26136
206 1 14.0591 14.0203 8.34848
207 1 15.3371 14.7582 10.4356
208 1 5.11238 0 0
209 1 14.0591 14.0203 2.08712
210 1 7.66857 1.47582 4.17424
211 1 16.6152 15.4961 6.26136
212 1 10.2248 2.95164 8.34848
213 1 19.1714 16.9719 10.4356
214 1 7.66857 2.95164 2.08712
215 1 25.5619 14.7582 10.4356
