ITEM: TIMESTEP
0
ITEM: NUMBER OF ATOMS
215
ITEM: BOX BOUNDS xy xz yz pp pp pp
0.0000000000000000e+00 3.0674292167872000e+01 7.6685730419680000e+00
0.0000000000000000e+00 1.7709810840323001e+01 7.6685730419680000e+00
0.0000000000000000e+00 1.2522727338723000e+01 4.4274527100809999e+00
ITEM: ATOMS id type xsu ysu zsu fx fy fz vx vy vz
1 1                    0                    0                    0 1.04205533091317e-12 -4.74867367650234e-12 -4.32992530718934e-12                    0                    0                    0
2 1                  0.5    0.666666666666629    0.833333333333258 -0.00171970511299212 -0.000822316619746549  -0.0076304089109872                    0                    0                    0
3 1    0.500000000000114    0.833333333333258                    0 -0.000147705474944925 -0.00656052963606341  0.00433524675729758                    0                    0                    0
4 1                  0.5    0.833333333333258    0.166666666666742 3.12431244070543e-12   0.0242612784315992  -0.0343106290021822                    0                    0                    0
5 1                  0.5    0.833333333333258    0.333333333333371  -0.0117931842630864  -0.0169986232332526   0.0132317418512494                    0                    0                    0
6 1    0.500000000000114    0.833333333333371                  0.5   0.0210108834462731   0.0363919176435422 2.91480121289434e-12                    0                    0                    0
7 1                  0.5    0.833333333333258    0.666666666666629 -0.00171970511327209 -0.00746812405399175  0.00176818208800587                    0                    0                    0
8 1                  0.5    0.833333333333371    0.833333333333258 -3.95053052094155e-05 2.28083956553549e-05 1.61279760374994e-05                    0                    0                    0
9 1    0.666666666666629                    0                    0  0.00147816373651283 -3.5512981444441e-12 -3.23313598116215e-12                    0                    0                    0
10 1    0.666666666666742                    0    0.166666666666629 -0.00118781275121516 0.000890343027097978 0.000412599998962204                    0                    0                    0
11 1    0.666666666666742                    0    0.333333333333371 0.000739081864835067 -0.000426709117759744 -0.00120691563888736                    0                    0                    0
12 1    0.666666666666742                    0                  0.5  0.00575543806267852  0.00513809255518026  0.00152698006920898                    0                    0                    0
13 1    0.666666666666629                    0    0.666666666666629 3.28537197447076e-12  0.00426484222695156 -0.00150784943516454                    0                    0                    0
14 1    0.666666666666742                    0    0.833333333333258 0.000147705471351234  0.00190046662924565 -0.00763040891138972                    0                    0                    0
15 1    0.666666666666629    0.166666666666629                    0 -0.00118781275128171 0.000685784016007635 0.000701890118411291                    0                    0                    0
16 1    0.666666666666742    0.166666666666742    0.166666666666629 -0.00136496605470249 0.000583504504959781 0.000412599997255292                    0                    0                    0
17 1    0.666666666666742    0.166666666666629    0.333333333333371  0.00115822599087179  -0.0132122852973343  -0.0107610278788713                    0                    0                    0
18 1    0.666666666666629    0.166666666666742                  0.5 3.30185878638645e-12   0.0238074213416355   0.0060264474100452                    0                    0                    0
19 1    0.666666666666742    0.166666666666629    0.666666666666629  -0.0117931842636896   0.0169986232358896   -0.013231741856476                    0                    0                    0
20 1    0.666666666666742    0.166666666666629    0.833333333333258   0.0131795136982157 -0.00627179160006935  0.00886965275034207                    0                    0                    0
21 1    0.666666666666629    0.333333333333371                    0 0.000739081864914504 -0.00128012734737273 -3.62970764555826e-12                    0                    0                    0
22 1    0.666666666666742    0.333333333333371    0.166666666666629  0.00115822599113025  -0.0145496894771514 -0.00886965274279571                    0                    0                    0
23 1    0.666666666666742    0.333333333333258    0.333333333333371  3.3548719358123e-12   0.0549598762320606   0.0388625011702173                    0                    0                    0
24 1    0.666666666666742    0.333333333333371                  0.5  -0.0862046113213464    0.149310766655169 2.55118148828615e-12                    0                    0                    0
25 1                  0.5    0.666666666666629    0.666666666666629 -0.00882464742326088  -0.0187125087817768  -0.0132317418573761                    0                    0                    0
26 1    0.666666666666742    0.333333333333258    0.666666666666629  -0.0475966490062685   0.0274799381170762  -0.0388625011770645                    0                    0                    0
27 1    0.500000000000114    0.666666666666629                  0.5   -0.086204611321298   -0.149310766651688 3.73402936175438e-12                    0                    0                    0
28 1                  0.5    0.666666666666742    0.166666666666629   0.0117931842602137 -0.00680879811286816   0.0204370363022239                    0                    0                    0
29 1                  0.5                    0    0.166666666666629 0.000147705468941533 -0.00190046662720892  0.00763040891958994                    0                    0                    0
30 1                  0.5                    0    0.333333333333371 -0.00560773259071816 -0.00522337034957282 -0.00176818209511564                    0                    0                    0
31 1                  0.5                    0                  0.5 2.28016910908124e-12 3.69622908669154e-12 4.56798075927634e-12                    0                    0                    0
32 1                  0.5                    0    0.666666666666629  0.00560773259243053   0.0052233703433597  0.00176818208633555                    0                    0                    0
33 1    0.500000000000114                    0    0.833333333333258 -0.000147705475851305  0.00190046662943347 -0.00763040891076763                    0                    0                    0
34 1                  0.5    0.166666666666629                    0 0.000147705469134488  0.00656052964209563  -0.0043352467641232                    0                    0                    0
35 1                  0.5    0.166666666666742    0.166666666666629 3.95053087790544e-05 -2.28084016271612e-05 -1.61279706013913e-05                    0                    0                    0
36 1                  0.5    0.166666666666629    0.333333333333371  0.00171970511822372  0.00746812405771832 -0.00176818209344613                    0                    0                    0
37 1                  0.5    0.166666666666742                  0.5  -0.0210108834515801  -0.0363919176502544 3.63349920897565e-12                    0                    0                    0
38 1                  0.5    0.166666666666629    0.666666666666629   0.0117931842598406    0.016998623235932   -0.013231741856186                    0                    0                    0
39 1                  0.5    0.166666666666629    0.833333333333258  2.8523060649488e-12  -0.0242612784273125   0.0343106290022637                    0                    0                    0
40 1                  0.5    0.333333333333371                    0 -0.00560773259068795 -0.00340818151454139 -0.00433524676351856                    0                    0                    0
41 1                  0.5    0.333333333333371    0.166666666666629  0.00171970511814218 0.000822316623795302  0.00763040891896768                    0                    0                    0
42 1                  0.5    0.333333333333258    0.333333333333371  0.00882464741806474   0.0187125087852968   0.0132317418488222                    0                    0                    0
43 1    0.500000000000114    0.333333333333371                  0.5   0.0862046113180071    0.149310766656055 2.73218231892913e-12                    0                    0                    0
44 1                  0.5    0.333333333333258    0.666666666666629 3.16121694793337e-12   0.0995405111057725   -0.140771540810065                    0                    0                    0
45 1                  0.5    0.333333333333371    0.833333333333258  -0.0117931842641093  0.00680879810641277  -0.0204370362958083                    0                    0                    0
46 1                  0.5                  0.5                    0 2.35111322771653e-12 -4.4828593961932e-13 -2.88361261951975e-12                    0                    0                    0
47 1                  0.5                  0.5    0.166666666666629  -0.0210108834516691  -0.0121306392125201  -0.0343106289932503                    0                    0                    0
48 1                  0.5                  0.5    0.333333333333371   0.0862046113185763   0.0497702555492949    0.140771540804843                    0                    0                    0
49 1                  0.5                  0.5    0.666666666666629  -0.0862046113205511  -0.0497702555544611   -0.140771540810787                    0                    0                    0
50 1    0.500000000000114                  0.5    0.833333333333258   0.0210108834463598   0.0121306392165634   0.0343106290014973                    0                    0                    0
51 1                  0.5    0.666666666666629                    0  0.00560773259242603  0.00340818151116519  0.00433524675623691                    0                    0                    0
52 1                  0.5    0.666666666666629    0.333333333333371 3.61949012428475e-12  -0.0995405111050817    0.140771540806166                    0                    0                    0
53 1                  0.5                    0                    0 8.54356516089005e-13 -3.37675720718522e-12 -1.4600157020872e-12                    0                    0                    0
54 1    0.666666666666629    0.333333333333371    0.833333333333258   0.0120212877101253 -0.00827789787550569  0.00886965275139619                    0                    0                    0
55 1    0.666666666666742                  0.5    0.166666666666629 3.65130148338721e-12    0.013617596221459   0.0204370363031418                    0                    0                    0
56 1    0.833333333333371    0.166666666666629    0.833333333333258 -0.00343740580735605  0.00198458717245625 -0.00280663008373419                    0                    0                    0
57 1    0.833333333333371    0.333333333333371                    0 1.76302722421084e-12  0.00137156802251964 -0.000701890124525456                    0                    0                    0
58 1    0.833333333333371    0.333333333333371    0.166666666666629 -0.00115822599535964  -0.0145496894759211 -0.00886965274231133                    0                    0                    0
59 1    0.833333333333371    0.333333333333258    0.333333333333371 -0.00882464742319278   0.0187125087847177   0.0132317418498696                    0                    0                    0
60 1    0.833333333333371    0.333333333333371                  0.5  -0.0206178316818919   0.0119037106722548 -0.00602644740392991                    0                    0                    0
61 1    0.833333333333371    0.333333333333258    0.666666666666629   0.0108630617117293 -0.00760919577943281   0.0107610278736935                    0                    0                    0
62 1    0.833333333333371    0.333333333333371    0.833333333333258 0.000177153296024968  0.00147384752863242 -0.000412599990453177                    0                    0                    0
63 1    0.833333333333371                  0.5                    0 -0.00575543806648038  0.00315234812971726  0.00433524675839569                    0                    0                    0
64 1    0.833333333333371                  0.5    0.166666666666742   0.0210108834462235  -0.0121306392125236  -0.0343106290002996                    0                    0                    0
65 1    0.833333333333371                  0.5    0.333333333333371   -0.020617831681221 -0.00171388554851973   0.0132317418489279                    0                    0                    0
66 1    0.833333333333371                  0.5                  0.5   0.0420217668984292 1.47554191087806e-12 5.15604225981292e-12                    0                    0                    0
67 1    0.833333333333371                  0.5    0.666666666666629 -0.00732743771424693  0.00224475370777755   0.0017681820872065                    0                    0                    0
68 1    0.833333333333371                  0.5    0.833333333333258 1.49863454979027e-12 -4.56167962350762e-05 1.61279772510417e-05                    0                    0                    0
69 1    0.833333333333371    0.666666666666629                    0 -0.00560773259790343  0.00340818151029881  0.00433524675772093                    0                    0                    0
70 1    0.833333333333371    0.666666666666742    0.166666666666629   0.0120212877086847  0.00827789786963234 -0.00886965274339671                    0                    0                    0
71 1    0.833333333333371    0.666666666666629    0.333333333333371   0.0108630617114582  0.00760919578398905  -0.0107610278777449                    0                    0                    0
72 1    0.833333333333371    0.666666666666629                  0.5 -0.00732743771437389  0.00241530930315093   0.0015269800683278                    0                    0                    0
73 1    0.833333333333371    0.666666666666629    0.666666666666629 1.50468526527447e-12  0.00189498185831979  0.00133995451774344                    0                    0                    0
74 1    0.833333333333371    0.666666666666629    0.833333333333258 -0.00164110242952303 0.000947490933887435  -0.0013399545174298                    0                    0                    0
75 1    0.833333333333371    0.833333333333258                    0 -0.00118781275154312 -0.000685784008652601 -0.000701890123196991                    0                    0                    0
76 1    0.833333333333371    0.833333333333258    0.166666666666742 -0.00343740580753638  -0.0019845871670604  0.00280663008516113                    0                    0                    0
77 1    0.833333333333371    0.833333333333258    0.333333333333371 0.000177153296459398 0.000102279508552933  0.00152709010800392                    0                    0                    0
78 1    0.833333333333371    0.833333333333371                  0.5  1.6572854200092e-12 -2.92613155927768e-12 -4.83839171845357e-05                    0                    0                    0
79 1    0.833333333333371    0.166666666666629    0.666666666666629   0.0120212877085229 -0.00560308951417142   0.0107610278719158                    0                    0                    0
80 1    0.666666666666742                  0.5                    0  0.00575543806289397  0.00315234812805198  0.00433524675629859                    0                    0                    0
81 1    0.833333333333371    0.166666666666742                  0.5   0.0210108834462046  -0.0363919176501367 3.76887410169502e-12                    0                    0                    0
82 1    0.833333333333371    0.166666666666742    0.166666666666629 1.62712898710282e-12  0.00396917433282781  0.00280663009129072                    0                    0                    0
83 1    0.666666666666742                  0.5    0.333333333333371  -0.0862046113224195   0.0497702555494151    0.140771540805077                    0                    0                    0
84 1    0.666666666666742                  0.5                  0.5   -0.172409222645139 4.25687263216901e-13 4.38062086605129e-12                    0                    0                    0
85 1    0.666666666666629                  0.5    0.666666666666629  -0.0206178316800311  0.00171388554285196  -0.0132317418562256                    0                    0                    0
86 1    0.666666666666742                  0.5    0.833333333333258 -0.00157199964410393 -0.00107815000485653 -0.00763040891143218                    0                    0                    0
87 1    0.666666666666629    0.666666666666629                    0 3.63017949034372e-12 -2.69645417105835e-14  0.00452354828873572                    0                    0                    0
88 1    0.666666666666742    0.666666666666742    0.166666666666629  -0.0117931842636528 -0.00680879811296074   0.0204370363020707                    0                    0                    0
89 1    0.666666666666742    0.666666666666629    0.333333333333371  -0.0475966490059871  -0.0274799381142017   0.0388625011704027                    0                    0                    0
90 1    0.666666666666742    0.666666666666629                  0.5   -0.020617831680251  -0.0119037106686288  0.00602644741003654                    0                    0                    0
91 1    0.666666666666742    0.666666666666629    0.666666666666629 -0.00369346171446577 -0.00213242111495462 -0.00150784943519011                    0                    0                    0
92 1    0.666666666666742    0.666666666666629    0.833333333333258  0.00164110242531681 0.000947490932881934 -0.00133995451841519                    0                    0                    0
93 1    0.666666666666742    0.833333333333258                    0 0.000147705471007953 -0.00656052963699116  0.00433524675770335                    0                    0                    0
94 1    0.666666666666742    0.833333333333371    0.166666666666629   0.0131795136984401  0.00627179160349102 -0.00886965274410059                    0                    0                    0
95 1    0.666666666666742    0.833333333333258    0.333333333333371   0.0120212877095595   0.0056030895184164  -0.0107610278772466                    0                    0                    0
96 1    0.666666666666742    0.833333333333371                  0.5 -0.00157199964425525 -0.00755340185459194  0.00152698006742527                    0                    0                    0
97 1    0.666666666666742    0.833333333333258    0.666666666666629  0.00164110242528442 -0.000947490926210742  0.00133995451962322                    0                    0                    0
98 1    0.666666666666742    0.833333333333371    0.833333333333258  3.1921965071291e-12 -0.00189498186141485 -0.00133995451918217                    0                    0                    0
99 1    0.833333333333371                    0                    0 -0.00147235522114375 -3.43386430401438e-12 -1.36299305175669e-12                    0                    0                    0
100 1    0.833333333333371                    0    0.166666666666629 -0.00073617761293765 0.000425032343785714  0.00120217300651705                    0                    0                    0
101 1    0.833333333333371                    0    0.333333333333371  1.4010181903501e-12 -0.000204559013414707  0.00152709010500404                    0                    0                    0
102 1    0.833333333333371                    0                  0.5 -0.00575543806724936  0.00513809255613307  0.00152698007023339                    0                    0                    0
103 1    0.833333333333371                    0    0.666666666666629 -0.00560773259794101   0.0052233703432682  0.00176818208597526                    0                    0                    0
104 1    0.833333333333371                    0    0.833333333333258 -0.00118781275217339 -0.000890343023061027 -0.000412599988896228                    0                    0                    0
105 1    0.833333333333371    0.166666666666629                    0 -0.000736177612898514  0.00127509702543752 -3.57386342741961e-12                    0                    0                    0
106 1    0.833333333333371    0.166666666666629    0.333333333333371 -0.00115822599550666  -0.0132122852962114  -0.0107610278781789                    0                    0                    0
107 1    0.833333333333371    0.833333333333258    0.666666666666629 -0.00164110242950991 -0.000947490925184091  0.00133995452018423                    0                    0                    0
108 1    0.333333333333371    0.833333333333371    0.833333333333258  0.00136496604968844 -0.000583504510614133 -0.000412599991459015                    0                    0                    0
109 1    0.333333333333371    0.833333333333371                  0.5 3.10540482217903e-12  -0.0238074213471366 -0.00602644740320998                    0                    0                    0
110 1                    0    0.666666666666629    0.666666666666629  0.00369346171820722 -0.00213242111493306 -0.00150784943534771                    0                    0                    0
111 1                    0    0.666666666666629    0.833333333333258  0.00171970511873615 -0.000822316621156421 -0.00763040891231095                    0                    0                    0
112 1                    0    0.833333333333258                    0 -0.000736177606472127 -0.00127509701897049 -2.50399700973958e-12                    0                    0                    0
113 1                    0    0.833333333333371    0.166666666666629 5.81756864903582e-13 -0.000850064682939244  0.00120217300378027                    0                    0                    0
114 1                    0    0.833333333333258    0.333333333333371 -0.000177153301107597 0.000102279508274461  0.00152709010697721                    0                    0                    0
115 1                    0    0.833333333333371                  0.5  0.00157199964790278  -0.0075534018548101  0.00152698006757493                    0                    0                    0
116 1                    0    0.833333333333258    0.666666666666629  0.00171970511890818 -0.00746812405601055  0.00176818208711357                    0                    0                    0
117 1                    0    0.833333333333371    0.833333333333258 -0.00136496605366399 -0.000583504512167154 -0.000412599992208038                    0                    0                    0
118 1    0.166666666666629                    0                    0  0.00147235522193789 -3.57680551843487e-12 -3.75349751280396e-12                    0                    0                    0
119 1    0.166666666666742                    0    0.166666666666629  0.00118781275340918 0.000890343026331342 0.000412599998817903                    0                    0                    0
120 1    0.166666666666742                    0    0.333333333333371  0.00560773259128548  -0.0052233703503996 -0.00176818209530993                    0                    0                    0
121 1    0.166666666666629                    0                  0.5  0.00575543807006734 -0.00513809254966391 -0.00152698006000553                    0                    0                    0
122 1    0.166666666666629                    0    0.666666666666629 4.99780772322822e-13 0.000204559007705579 -0.00152709011426676                    0                    0                    0
123 1    0.166666666666742                    0    0.833333333333258 0.000736177606427968 -0.00042503234170066 -0.00120217299706304                    0                    0                    0
124 1    0.166666666666629    0.166666666666629                    0  0.00118781275328304 0.000685784015895419 0.000701890117335624                    0                    0                    0
125 1    0.166666666666742    0.166666666666742    0.166666666666629 -3.95053088345018e-05 -2.28084015509999e-05 -1.61279707558831e-05                    0                    0                    0
126 1    0.166666666666629    0.166666666666629    0.333333333333371  0.00164110243238874 0.000947490929320061 -0.00133995452483351                    0                    0                    0
127 1    0.166666666666629    0.166666666666742                  0.5 -2.42444953002519e-14 -3.56203955220735e-12  4.8383923590245e-05                    0                    0                    0
128 1    0.166666666666742    0.166666666666629    0.666666666666629 -0.000177153302821961 -0.000102279505332065 -0.00152709011338964                    0                    0                    0
129 1    0.166666666666742    0.166666666666629    0.833333333333258  0.00343740581029306  0.00198458717137234 -0.00280663008465329                    0                    0                    0
130 1    0.166666666666629    0.333333333333371                    0  0.00560773259100489 -0.00340818151461114 -0.00433524676441724                    0                    0                    0
131 1    0.166666666666629    0.333333333333371    0.166666666666629  0.00164110243209126 -0.00094749092872054  0.00133995452547481                    0                    0                    0
132 1    0.166666666666742    0.333333333333258    0.333333333333371 -5.66630076193064e-14 -0.00189498185440068 -0.00133995452573921                    0                    0                    0
133 1 1.13686837721616e-13    0.666666666666629                  0.5  0.00732743770922523  0.00241530930319189  0.00152698006830065                    0                    0                    0
134 1    0.166666666666742    0.333333333333371                  0.5  0.00732743770707775 -0.00241530929967879 -0.00152698006215508                    0                    0                    0
135 1                    0    0.666666666666629    0.333333333333371 6.97886193279373e-13 0.000853418228367042 -0.00120691563896103                    0                    0                    0
136 1                    0    0.666666666666629                    0 0.000739081865459845  0.00128012734351809 -4.21257473348646e-12                    0                    0                    0
137 1                    0                    0    0.166666666666629 0.000736177607706917 0.000425032343930432  0.00120217300623471                    0                    0                    0
138 1                    0                    0    0.333333333333371 -0.000739081863079638 -0.000426709117985924 -0.00120691563912345                    0                    0                    0
139 1                    0                    0                  0.5 8.40771896548631e-13 1.58506541225734e-12 4.00168786995891e-12                    0                    0                    0
140 1                    0                    0    0.666666666666629 0.000739081865539143 0.000426709110431411  0.00120691562954783                    0                    0                    0
141 1                    0                    0    0.833333333333258 -0.000736177605408506 -0.00042503234088459 -0.00120217299704578                    0                    0                    0
142 1                    0    0.166666666666629                    0 0.000736177607834454  0.00127509702533501 -3.5955127763998e-12                    0                    0                    0
143 1                    0    0.166666666666742    0.166666666666629  0.00136496605656583 0.000583504504878984 0.000412599996899021                    0                    0                    0
144 1                    0    0.166666666666629    0.333333333333371 -0.00171970511544506  0.00746812405690578 -0.00176818209460422                    0                    0                    0
145 1                    0    0.166666666666742                  0.5 -0.00157199964548682  0.00755340184818598  -0.0015269800611688                    0                    0                    0
146 1                    0    0.166666666666629    0.666666666666629 0.000177153303241917 -0.000102279505170944 -0.00152709011361643                    0                    0                    0
147 1                    0    0.166666666666629    0.833333333333258 1.03361763592602e-12 0.000850064684198293 -0.00120217299882977                    0                    0                    0
148 1 -5.6843418860808e-14    0.333333333333371                    0 -0.000739081862955154 -0.00128012734758576  -3.644529122937e-12                    0                    0                    0
149 1                    0    0.333333333333371    0.166666666666629 -0.00171970511537978 0.000822316622727914  0.00763040891798816                    0                    0                    0
150 1                    0    0.333333333333258    0.333333333333371 -0.00369346171614229  0.00213242111871381  0.00150784942695303                    0                    0                    0
151 1                    0    0.333333333333371                  0.5 -0.00732743770698641 -0.00241530929980394  -0.0015269800622181                    0                    0                    0
152 1                    0    0.333333333333258    0.666666666666629 8.78630501688349e-13 -0.000853418227518388  0.00120691563086434                    0                    0                    0