ITEM: TIMESTEP
0
ITEM: NUMBER OF ATOMS
215
ITEM: BOX BOUNDS xy xz yz pp pp pp
0.0000000000000000e+00 3.0674292167872000e+01 7.6685730419680000e+00
0.0000000000000000e+00 1.7709810840323001e+01 7.6685730419680000e+00
0.0000000000000000e+00 1.2522727338723000e+01 4.4274527100809999e+00
ITEM: ATOMS id type xsu ysu zsu fx fy fz vx vy vz
1 1                    0                    0                    0  1.0305645226083e-12 -4.76119144110498e-12 -4.40877889751334e-12                    0                    0                    0
2 1                  0.5    0.666666666666629    0.833333333333258  -0.0017197051130968 -0.000822316619705939 -0.00763040891080386                    0                    0                    0
3 1    0.500000000000114    0.833333333333258                    0 -0.000147705475072607 -0.00656052963607453   0.0043352467570358                    0                    0                    0
4 1                  0.5    0.833333333333258    0.166666666666742 3.00980941558837e-12   0.0242612784317758  -0.0343106290023635                    0                    0                    0
5 1                  0.5    0.833333333333258    0.333333333333371   -0.011793184263163  -0.0169986232334206   0.0132317418510864                    0                    0                    0
6 1    0.500000000000114    0.833333333333371                  0.5   0.0210108834462781   0.0363919176438327 3.18888253476868e-12                    0                    0                    0
7 1                  0.5    0.833333333333258    0.666666666666629 -0.00171970511315175 -0.00746812405384357  0.00176818208816958                    0                    0                    0
8 1                  0.5    0.833333333333371    0.833333333333258 -3.95053053090962e-05 2.28083957975345e-05 1.61279761839959e-05                    0                    0                    0
9 1    0.666666666666629                    0                    0  0.00147816373646403 -3.39822614492391e-12 -3.46339623646941e-12                    0                    0                    0
10 1    0.666666666666742                    0    0.166666666666629 -0.00118781275116497 0.000890343027161344 0.000412599998645929                    0                    0                    0
11 1    0.666666666666742                    0    0.333333333333371 0.000739081864940316 -0.000426709117576529 -0.00120691563898656                    0                    0                    0
12 1    0.666666666666742                    0                  0.5  0.00575543806285879  0.00513809255536896   0.0015269800694733                    0                    0                    0
13 1    0.666666666666629                    0    0.666666666666629 3.27121663090679e-12  0.00426484222691186 -0.00150784943511677                    0                    0                    0
14 1    0.666666666666742                    0    0.833333333333258  0.00014770547128623   0.0019004666292054 -0.00763040891135108                    0                    0                    0
15 1    0.666666666666629    0.166666666666629                    0 -0.00118781275134439 0.000685784016050156 0.000701890118353851                    0                    0                    0
16 1    0.666666666666742    0.166666666666742    0.166666666666629 -0.00136496605471459 0.000583504504902049 0.000412599997012875                    0                    0                    0
17 1    0.666666666666742    0.166666666666629    0.333333333333371   0.0011582259910957  -0.0132122852972726  -0.0107610278787501                    0                    0                    0
18 1    0.666666666666629    0.166666666666742                  0.5 3.44427264487024e-12   0.0238074213416083  0.00602644741008208                    0                    0                    0
19 1    0.666666666666742    0.166666666666629    0.666666666666629  -0.0117931842637404   0.0169986232358248  -0.0132317418564461                    0                    0                    0
20 1    0.666666666666742    0.166666666666629    0.833333333333258   0.0131795136981835 -0.00627179160005048  0.00886965275039997                    0                    0                    0
21 1    0.666666666666629    0.333333333333371                    0 0.000739081864806146 -0.00128012734743446 -3.69990149629018e-12                    0                    0                    0
22 1    0.666666666666742    0.333333333333371    0.166666666666629    0.001158225991033  -0.0145496894772271 -0.00886965274291215                    0                    0                    0
23 1    0.666666666666742    0.333333333333258    0.333333333333371 3.37602168443141e-12   0.0549598762318119   0.0388625011704638                    0                    0                    0
24 1    0.666666666666742    0.333333333333371                  0.5  -0.0862046113213794    0.149310766654843 2.73914224635519e-12                    0                    0                    0
25 1                  0.5    0.666666666666629    0.666666666666629 -0.00882464742321386   -0.018712508781802  -0.0132317418570391                    0                    0                    0
26 1    0.666666666666742    0.333333333333258    0.666666666666629  -0.0475966490061654   0.0274799381169895  -0.0388625011768466                    0                    0                    0
27 1    0.500000000000114    0.666666666666629                  0.5  -0.0862046113214201   -0.149310766651726 3.87121183633571e-12                    0                    0                    0
28 1                  0.5    0.666666666666742    0.166666666666629   0.0117931842600019 -0.00680879811302122    0.020437036301986                    0                    0                    0
29 1                  0.5                    0    0.166666666666629 0.000147705468904231 -0.00190046662706927  0.00763040891923287                    0                    0                    0
30 1                  0.5                    0    0.333333333333371 -0.00560773259073472 -0.00522337034923994  -0.0017681820951012                    0                    0                    0
31 1                  0.5                    0                  0.5 2.18096721238403e-12 3.79343171458268e-12  4.8155143067552e-12                    0                    0                    0
32 1                  0.5                    0    0.666666666666629  0.00560773259253175  0.00522337034338441  0.00176818208643032                    0                    0                    0
33 1    0.500000000000114                    0    0.833333333333258    -0.00014770547574  0.00190046662946621 -0.00763040891077128                    0                    0                    0
34 1                  0.5    0.166666666666629                    0 0.000147705469049614  0.00656052964219631 -0.00433524676427075                    0                    0                    0
35 1                  0.5    0.166666666666742    0.166666666666629 3.95053087605991e-05 -2.28084014751574e-05 -1.61279708521551e-05                    0                    0                    0
36 1                  0.5    0.166666666666629    0.333333333333371  0.00171970511808225  0.00746812405794928 -0.00176818209353609                    0                    0                    0
37 1                  0.5    0.166666666666742                  0.5  -0.0210108834514538  -0.0363919176502566 3.79750061691581e-12                    0                    0                    0
38 1                  0.5    0.166666666666629    0.666666666666629   0.0117931842599036   0.0169986232359407  -0.0132317418560875                    0                    0                    0
39 1                  0.5    0.166666666666629    0.833333333333258 2.81603733387481e-12  -0.0242612784271685   0.0343106290022969                    0                    0                    0
40 1                  0.5    0.333333333333371                    0 -0.00560773259078495  -0.0034081815145003 -0.00433524676354038                    0                    0                    0
41 1                  0.5    0.333333333333371    0.166666666666629  0.00171970511801019 0.000822316623861738  0.00763040891891822                    0                    0                    0
42 1                  0.5    0.333333333333258    0.333333333333371  0.00882464741800632    0.018712508785301   0.0132317418487983                    0                    0                    0
43 1    0.500000000000114    0.333333333333371                  0.5   0.0862046113180471     0.14931076665602 2.90671024576195e-12                    0                    0                    0
44 1                  0.5    0.333333333333258    0.666666666666629 3.14004811735602e-12   0.0995405111057343   -0.140771540809772                    0                    0                    0
45 1                  0.5    0.333333333333371    0.833333333333258  -0.0117931842642736  0.00680879810630131  -0.0204370362958376                    0                    0                    0
46 1                  0.5                  0.5                    0 2.17281140996173e-12 -3.34694511688882e-13 -2.84247408596783e-12                    0                    0                    0
47 1                  0.5                  0.5    0.166666666666629  -0.0210108834517338  -0.0121306392125239  -0.0343106289935038                    0                    0                    0
48 1                  0.5                  0.5    0.333333333333371   0.0862046113184686   0.0497702555492278    0.140771540804911                    0                    0                    0
49 1                  0.5                  0.5    0.666666666666629  -0.0862046113207099    -0.04977025555465   -0.140771540810392                    0                    0                    0
50 1    0.500000000000114                  0.5    0.833333333333258   0.0210108834463023   0.0121306392165266   0.0343106290016894                    0                    0                    0
51 1                  0.5    0.666666666666629                    0  0.00560773259222621  0.00340818151121351  0.00433524675633065                    0                    0                    0
52 1                  0.5    0.666666666666629    0.333333333333371 3.48752103584982e-12  -0.0995405111051291    0.140771540806217                    0                    0                    0
53 1                  0.5                    0                    0 8.13194997451028e-13 -3.24848741656281e-12 -1.73738454178896e-12                    0                    0                    0
54 1    0.666666666666629    0.333333333333371    0.833333333333258   0.0120212877100707 -0.00827789787553583  0.00886965275128055                    0                    0                    0
55 1    0.666666666666742                  0.5    0.166666666666629 3.45043438265691e-12   0.0136175962213939   0.0204370363030228                    0                    0                    0
56 1    0.833333333333371    0.166666666666629    0.833333333333258 -0.00343740580739214  0.00198458717240246 -0.00280663008383847                    0                    0                    0
57 1    0.833333333333371    0.333333333333371                    0  1.8973780879783e-12  0.00137156802234946 -0.000701890124665303                    0                    0                    0
58 1    0.833333333333371    0.333333333333371    0.166666666666629 -0.00115822599525447  -0.0145496894761656 -0.00886965274241946                    0                    0                    0
59 1    0.833333333333371    0.333333333333258    0.333333333333371 -0.00882464742324091   0.0187125087844751   0.0132317418500247                    0                    0                    0
60 1    0.833333333333371    0.333333333333371                  0.5  -0.0206178316819057    0.011903710672056 -0.00602644740363824                    0                    0                    0
61 1    0.833333333333371    0.333333333333258    0.666666666666629   0.0108630617115198 -0.00760919577957259   0.0107610278738327                    0                    0                    0
62 1    0.833333333333371    0.333333333333371    0.833333333333258 0.000177153296055055  0.00147384752863647 -0.000412599990457341                    0                    0                    0
63 1    0.833333333333371                  0.5                    0 -0.00575543806630846  0.00315234812963716  0.00433524675820768                    0                    0                    0
64 1    0.833333333333371                  0.5    0.166666666666742   0.0210108834464592  -0.0121306392126926  -0.0343106290005425                    0                    0                    0
65 1    0.833333333333371                  0.5    0.333333333333371  -0.0206178316809883 -0.00171388554870666   0.0132317418487587                    0                    0                    0
66 1    0.833333333333371                  0.5                  0.5    0.042021766898752 1.20603527165031e-12 5.33939559232977e-12                    0                    0                    0
67 1    0.833333333333371                  0.5    0.666666666666629 -0.00732743771418448  0.00224475370773053  0.00176818208732488                    0                    0                    0
68 1    0.833333333333371                  0.5    0.833333333333258  1.7187362644222e-12 -4.56167965220966e-05 1.61279771847961e-05                    0                    0                    0
69 1    0.833333333333371    0.666666666666629                    0 -0.00560773259784739  0.00340818151011492  0.00433524675738919                    0                    0                    0
70 1    0.833333333333371    0.666666666666742    0.166666666666629   0.0120212877087897  0.00827789786955221 -0.00886965274349513                    0                    0                    0
71 1    0.833333333333371    0.666666666666629    0.333333333333371   0.0108630617115728  0.00760919578370933    -0.01076102787789                    0                    0                    0
72 1    0.833333333333371    0.666666666666629                  0.5 -0.00732743771405259  0.00241530930309586   0.0015269800685983                    0                    0                    0
73 1    0.833333333333371    0.666666666666629    0.666666666666629 1.64554481152379e-12  0.00189498185814646  0.00133995451765731                    0                    0                    0
74 1    0.833333333333371    0.666666666666629    0.833333333333258 -0.00164110242931279 0.000947490933989298 -0.00133995451738717                    0                    0                    0
75 1    0.833333333333371    0.833333333333258                    0 -0.00118781275145824 -0.000685784008650214 -0.000701890123358279                    0                    0                    0
76 1    0.833333333333371    0.833333333333258    0.166666666666742 -0.00343740580739157 -0.00198458716697938  0.00280663008483698                    0                    0                    0
77 1    0.833333333333371    0.833333333333258    0.333333333333371 0.000177153296826549 0.000102279508660125  0.00152709010783925                    0                    0                    0
78 1    0.833333333333371    0.833333333333371                  0.5 1.62493629662919e-12 -2.93909341309018e-12 -4.83839170862671e-05                    0                    0                    0
79 1    0.833333333333371    0.166666666666629    0.666666666666629   0.0120212877085832 -0.00560308951406127   0.0107610278719888                    0                    0                    0
80 1    0.666666666666742                  0.5                    0  0.00575543806267517  0.00315234812808869  0.00433524675632038                    0                    0                    0
81 1    0.833333333333371    0.166666666666742                  0.5   0.0210108834460427  -0.0363919176502114 3.79080100643137e-12                    0                    0                    0
82 1    0.833333333333371    0.166666666666742    0.166666666666629 1.69213254519462e-12  0.00396917433274732  0.00280663009119381                    0                    0                    0
83 1    0.666666666666742                  0.5    0.333333333333371  -0.0862046113224784    0.049770255549302    0.140771540805168                    0                    0                    0
84 1    0.666666666666742                  0.5                  0.5   -0.172409222645172 2.30079844065756e-13 4.56301663120939e-12                    0                    0                    0
85 1    0.666666666666629                  0.5    0.666666666666629  -0.0206178316799671  0.00171388554269302   -0.013231741855792                    0                    0                    0
86 1    0.666666666666742                  0.5    0.833333333333258 -0.00157199964425314 -0.00107815000494835 -0.00763040891147262                    0                    0                    0
87 1    0.666666666666629    0.666666666666629                    0 3.55879214986032e-12 6.00908212078366e-14  0.00452354828846904                    0                    0                    0
88 1    0.666666666666742    0.666666666666742    0.166666666666629  -0.0117931842635445  -0.0068087981128611   0.0204370363019208                    0                    0                    0
89 1    0.666666666666742    0.666666666666629    0.333333333333371  -0.0475966490060956  -0.0274799381142243   0.0388625011703288                    0                    0                    0
90 1    0.666666666666742    0.666666666666629                  0.5  -0.0206178316801991  -0.0119037106685591   0.0060264474102772                    0                    0                    0
91 1    0.666666666666742    0.666666666666629    0.666666666666629 -0.00369346171450213 -0.00213242111497625 -0.00150784943511631                    0                    0                    0
92 1    0.666666666666742    0.666666666666629    0.833333333333258  0.00164110242522189  0.00094749093302357 -0.00133995451831161                    0                    0                    0
93 1    0.666666666666742    0.833333333333258                    0 0.000147705470909198  -0.0065605296368911  0.00433524675732688                    0                    0                    0
94 1    0.666666666666742    0.833333333333371    0.166666666666629   0.0131795136985298  0.00627179160352404 -0.00886965274415555                    0                    0                    0
95 1    0.666666666666742    0.833333333333258    0.333333333333371   0.0120212877094387   0.0056030895183624  -0.0107610278774424                    0                    0                    0
96 1    0.666666666666742    0.833333333333371                  0.5 -0.00157199964413485 -0.00755340185450423  0.00152698006783739                    0                    0                    0
97 1    0.666666666666742    0.833333333333258    0.666666666666629   0.0016411024252736 -0.000947490925936906  0.00133995451963831                    0                    0                    0
98 1    0.666666666666742    0.833333333333371    0.833333333333258 3.30518945546032e-12  -0.0018949818612404  -0.0013399545192502                    0                    0                    0
99 1    0.833333333333371                    0                    0 -0.00147235522097566 -3.30296900941107e-12 -1.48900336505164e-12                    0                    0                    0
100 1    0.833333333333371                    0    0.166666666666629 -0.000736177612777555 0.000425032343804255  0.00120217300621624                    0                    0                    0
101 1    0.833333333333371                    0    0.333333333333371 1.63077884529628e-12 -0.000204559013247035   0.0015270901048946                    0                    0                    0
102 1    0.833333333333371                    0                  0.5 -0.00575543806727902  0.00513809255652026  0.00152698007024665                    0                    0                    0
103 1    0.833333333333371                    0    0.666666666666629  -0.0056077325979666  0.00522337034325454  0.00176818208603866                    0                    0                    0
104 1    0.833333333333371                    0    0.833333333333258 -0.00118781275223279 -0.000890343022957818 -0.000412599988994733                    0                    0                    0
105 1    0.833333333333371    0.166666666666629                    0 -0.000736177612809807  0.00127509702531879 -3.55213081171257e-12                    0                    0                    0
106 1    0.833333333333371    0.166666666666629    0.333333333333371  -0.0011582259954729  -0.0132122852963009   -0.010761027878008                    0                    0                    0
107 1    0.833333333333371    0.833333333333258    0.666666666666629 -0.00164110242951071 -0.000947490924954608  0.00133995452048496                    0                    0                    0
108 1    0.333333333333371    0.833333333333371    0.833333333333258   0.0013649660496672 -0.000583504510585642 -0.00041259999126492                    0                    0                    0
109 1    0.333333333333371    0.833333333333371                  0.5 2.99168675943484e-12   -0.023807421347029 -0.00602644740298633                    0                    0                    0
110 1                    0    0.666666666666629    0.666666666666629   0.0036934617181697 -0.00213242111510359 -0.00150784943509152                    0                    0                    0
111 1                    0    0.666666666666629    0.833333333333258  0.00171970511873021 -0.000822316621155617 -0.00763040891229394                    0                    0                    0
112 1                    0    0.833333333333258                    0 -0.000736177606218025 -0.00127509701906381 -2.68057798180621e-12                    0                    0                    0
113 1                    0    0.833333333333371    0.166666666666629 8.01914090686751e-13 -0.000850064682951124  0.00120217300355643                    0                    0                    0
114 1                    0    0.833333333333258    0.333333333333371 -0.000177153300896737 0.000102279508111813  0.00152709010667551                    0                    0                    0
115 1                    0    0.833333333333371                  0.5  0.00157199964785099 -0.00755340185473502  0.00152698006757426                    0                    0                    0
116 1                    0    0.833333333333258    0.666666666666629  0.00171970511890063 -0.00746812405591502  0.00176818208737273                    0                    0                    0
117 1                    0    0.833333333333371    0.833333333333258 -0.00136496605347641 -0.000583504512230215 -0.000412599992194798                    0                    0                    0
118 1    0.166666666666629                    0                    0  0.00147235522203665 -3.63409302650552e-12 -3.78469477979593e-12                    0                    0                    0
119 1    0.166666666666742                    0    0.166666666666629  0.00118781275334864 0.000890343026329732 0.000412599998762864                    0                    0                    0
120 1    0.166666666666742                    0    0.333333333333371  0.00560773259107882 -0.00522337035033538  -0.0017681820955403                    0                    0                    0
121 1    0.166666666666629                    0                  0.5  0.00575543807010648 -0.00513809254957931 -0.00152698006000444                    0                    0                    0
122 1    0.166666666666629                    0    0.666666666666629 5.50962053758042e-13 0.000204559007745381 -0.00152709011413095                    0                    0                    0
123 1    0.166666666666742                    0    0.833333333333258 0.000736177606443844 -0.000425032341635767 -0.00120217299690845                    0                    0                    0
124 1    0.166666666666629    0.166666666666629                    0  0.00118781275326978 0.000685784015878488 0.000701890117318082                    0                    0                    0
125 1    0.166666666666742    0.166666666666742    0.166666666666629 -3.95053088329475e-05 -2.28084015786445e-05 -1.61279708881246e-05                    0                    0                    0
126 1    0.166666666666629    0.166666666666629    0.333333333333371  0.00164110243228965 0.000947490929322004 -0.00133995452502012                    0                    0                    0
127 1    0.166666666666629    0.166666666666742                  0.5 8.40300051763165e-14 -3.57558427310778e-12 4.83839236887773e-05                    0                    0                    0
128 1    0.166666666666742    0.166666666666629    0.666666666666629 -0.00017715330274562 -0.000102279505348524 -0.00152709011325475                    0                    0                    0
129 1    0.166666666666742    0.166666666666629    0.833333333333258  0.00343740581026514  0.00198458717135383 -0.00280663008452678                    0                    0                    0
130 1    0.166666666666629    0.333333333333371                    0  0.00560773259102149 -0.00340818151474609 -0.00433524676444785                    0                    0                    0
131 1    0.166666666666629    0.333333333333371    0.166666666666629  0.00164110243204529 -0.000947490928789707  0.00133995452536986                    0                    0                    0
132 1    0.166666666666742    0.333333333333258    0.333333333333371 -1.19113052754471e-13 -0.00189498185423337 -0.00133995452581073                    0                    0                    0
133 1 1.13686837721616e-13    0.666666666666629                  0.5  0.00732743770921654  0.00241530930291767  0.00152698006830776                    0                    0                    0
134 1    0.166666666666742    0.333333333333371                  0.5  0.00732743770715964 -0.00241530929972922 -0.00152698006216441                    0                    0                    0
135 1                    0    0.666666666666629    0.333333333333371 9.91873250200115e-13 0.000853418228259739 -0.00120691563900166                    0                    0                    0
136 1                    0    0.666666666666629                    0 0.000739081865631153  0.00128012734348827 -4.34996483278383e-12                    0                    0                    0
137 1                    0                    0    0.166666666666629 0.000736177607811972 0.000425032343789988  0.00120217300618147                    0                    0                    0
138 1                    0                    0    0.333333333333371 -0.000739081863013857 -0.000426709117853197 -0.00120691563930397                    0                    0                    0
139 1                    0                    0                  0.5 7.14095449438901e-13 1.78912440418344e-12 3.96860322382508e-12                    0                    0                    0
140 1                    0                    0    0.666666666666629  0.00073908186539115 0.000426709110481371  0.00120691562972192                    0                    0                    0
141 1                    0                    0    0.833333333333258 -0.000736177605335286 -0.000425032340892417 -0.00120217299692832                    0                    0                    0
142 1                    0    0.166666666666629                    0 0.000736177607888577  0.00127509702533213 -3.79318798593431e-12                    0                    0                    0
143 1                    0    0.166666666666742    0.166666666666629  0.00136496605668246 0.000583504504823945 0.000412599996873847                    0                    0                    0
144 1                    0    0.166666666666629    0.333333333333371 -0.00171970511552333  0.00746812405671782 -0.00176818209465046                    0                    0                    0
145 1                    0    0.166666666666742                  0.5  -0.0015719996455977  0.00755340184821784 -0.00152698006109631                    0                    0                    0
146 1                    0    0.166666666666629    0.666666666666629 0.000177153303118904 -0.000102279505140912 -0.00152709011344745                    0                    0                    0
147 1                    0    0.166666666666629    0.833333333333258 1.14142029161712e-12 0.000850064684083801 -0.00120217299866693                    0                    0                    0
148 1 -5.6843418860808e-14    0.333333333333371                    0 -0.000739081862913486  -0.0012801273476869 -3.77770037474079e-12                    0                    0                    0
149 1                    0    0.333333333333371    0.166666666666629 -0.00171970511524255 0.000822316622574731  0.00763040891780919                    0                    0                    0
150 1                    0    0.333333333333258    0.333333333333371 -0.00369346171598375  0.00213242111880674  0.00150784942686966                    0                    0                    0
151 1                    0    0.333333333333371                  0.5 -0.00732743770702904 -0.00241530929976133 -0.00152698006224353                    0                    0                    0
152 1                    0    0.333333333333258    0.666666666666629 8.64641691578072e-13 -0.000853418227452274  0.00120691563097103                    0                    0                    0