ITEM: TIMESTEP
0
ITEM: NUMBER OF ATOMS
215
ITEM: BOX BOUNDS xy xz yz pp pp pp
0.0000000000000000e+00 3.0674292167872000e+01 7.6685730419680000e+00
0.0000000000000000e+00 1.7709810840323001e+01 7.6685730419680000e+00
0.0000000000000000e+00 1.2522727338723000e+01 4.4274527100809999e+00
ITEM: ATOMS id type xsu ysu zsu c_peratom
1 1                    0                    0                    0     -3.6985662056745
2 1                  0.5    0.666666666666629    0.833333333333258    -3.69793559960094
3 1    0.500000000000114    0.833333333333258                    0    -3.69793559961182
4 1                  0.5    0.833333333333258    0.166666666666742    -3.69689587206878
5 1                  0.5    0.833333333333258    0.333333333333371    -3.74078033524131
6 1    0.500000000000114    0.833333333333371                  0.5    -3.69689587207287
7 1                  0.5    0.833333333333258    0.666666666666629    -3.69793559960175
8 1                  0.5    0.833333333333371    0.833333333333258    -3.69856620567239
9 1    0.666666666666629                    0                    0     -3.6985662056716
10 1    0.666666666666742                    0    0.166666666666629    -3.69856620567136
11 1    0.666666666666742                    0    0.333333333333371    -3.69856620566937
12 1    0.666666666666742                    0                  0.5    -3.69793559960182
13 1    0.666666666666629                    0    0.666666666666629      -3.694943226985
14 1    0.666666666666742                    0    0.833333333333258    -3.69793559960557
15 1    0.666666666666629    0.166666666666629                    0    -3.69856620567067
16 1    0.666666666666742    0.166666666666742    0.166666666666629    -3.69856620566945
17 1    0.666666666666742    0.166666666666629    0.333333333333371    -3.69008312351718
18 1    0.666666666666629    0.166666666666742                  0.5    -3.74078033524512
19 1    0.666666666666742    0.166666666666629    0.666666666666629    -3.74078033524572
20 1    0.666666666666742    0.166666666666629    0.833333333333258    -3.69008312351922
21 1    0.666666666666629    0.333333333333371                    0    -3.69856620566836
22 1    0.666666666666742    0.333333333333371    0.166666666666629    -3.69008312352209
23 1    0.666666666666742    0.333333333333258    0.333333333333371    -3.79679417773923
24 1    0.666666666666742    0.333333333333371                  0.5    -3.49462565768242
25 1                  0.5    0.666666666666629    0.666666666666629    -3.74078033524685
26 1    0.666666666666742    0.333333333333258    0.666666666666629    -3.79679417773788
27 1    0.500000000000114    0.666666666666629                  0.5    -3.49462565768673
28 1                  0.5    0.666666666666742    0.166666666666629    -3.74078033524697
29 1                  0.5                    0    0.166666666666629     -3.6979355995983
30 1                  0.5                    0    0.333333333333371    -3.69793559960317
31 1                  0.5                    0                  0.5    -3.69856620567131
32 1                  0.5                    0    0.666666666666629    -3.69793559960131
33 1    0.500000000000114                    0    0.833333333333258    -3.69793559960043
34 1                  0.5    0.166666666666629                    0    -3.69793559960983
35 1                  0.5    0.166666666666742    0.166666666666629    -3.69856620567155
36 1                  0.5    0.166666666666629    0.333333333333371    -3.69793559960044
37 1                  0.5    0.166666666666742                  0.5    -3.69689587207206
38 1                  0.5    0.166666666666629    0.666666666666629     -3.7407803352459
39 1                  0.5    0.166666666666629    0.833333333333258    -3.69689587207031
40 1                  0.5    0.333333333333371                    0    -3.69793559961163
41 1                  0.5    0.333333333333371    0.166666666666629    -3.69793559960175
42 1                  0.5    0.333333333333258    0.333333333333371    -3.74078033524368
43 1    0.500000000000114    0.333333333333371                  0.5    -3.49462565768792
44 1                  0.5    0.333333333333258    0.666666666666629    -3.49462565768475
45 1                  0.5    0.333333333333371    0.833333333333258    -3.74078033524438
46 1                  0.5                  0.5                    0    -3.69856620567069
47 1                  0.5                  0.5    0.166666666666629    -3.69689587206743
48 1                  0.5                  0.5    0.333333333333371    -3.49462565768283
49 1                  0.5                  0.5    0.666666666666629    -3.49462565768135
50 1    0.500000000000114                  0.5    0.833333333333258    -3.69689587206953
51 1                  0.5    0.666666666666629                    0    -3.69793559961049
52 1                  0.5    0.666666666666629    0.333333333333371    -3.49462565768813
53 1                  0.5                    0                    0     -3.6985662056713
54 1    0.666666666666629    0.333333333333371    0.833333333333258     -3.6900831235188
55 1    0.666666666666742                  0.5    0.166666666666629    -3.74078033524606
56 1    0.833333333333371    0.166666666666629    0.833333333333258      -3.698510908318
57 1    0.833333333333371    0.333333333333371                    0    -3.69856620567009
58 1    0.833333333333371    0.333333333333371    0.166666666666629    -3.69008312352082
59 1    0.833333333333371    0.333333333333258    0.333333333333371    -3.74078033524533
60 1    0.833333333333371    0.333333333333371                  0.5    -3.74078033524403
61 1    0.833333333333371    0.333333333333258    0.666666666666629    -3.69008312351586
62 1    0.833333333333371    0.333333333333371    0.833333333333258     -3.6985662056707
63 1    0.833333333333371                  0.5                    0    -3.69793559961037
64 1    0.833333333333371                  0.5    0.166666666666742    -3.69689587206562
65 1    0.833333333333371                  0.5    0.333333333333371    -3.74078033524322
66 1    0.833333333333371                  0.5                  0.5    -3.69689587207478
67 1    0.833333333333371                  0.5    0.666666666666629    -3.69793559960043
68 1    0.833333333333371                  0.5    0.833333333333258    -3.69856620567441
69 1    0.833333333333371    0.666666666666629                    0     -3.6979355996056
70 1    0.833333333333371    0.666666666666742    0.166666666666629    -3.69008312352337
71 1    0.833333333333371    0.666666666666629    0.333333333333371    -3.69008312352139
72 1    0.833333333333371    0.666666666666629                  0.5    -3.69793559960704
73 1    0.833333333333371    0.666666666666629    0.666666666666629    -3.69856620567151
74 1    0.833333333333371    0.666666666666629    0.833333333333258    -3.69856620567334
75 1    0.833333333333371    0.833333333333258                    0    -3.69856620566951
76 1    0.833333333333371    0.833333333333258    0.166666666666742    -3.69851090831993
77 1    0.833333333333371    0.833333333333258    0.333333333333371    -3.69856620567232
78 1    0.833333333333371    0.833333333333371                  0.5    -3.69856620566908
79 1    0.833333333333371    0.166666666666629    0.666666666666629    -3.69008312351683
80 1    0.666666666666742                  0.5                    0    -3.69793559961126
81 1    0.833333333333371    0.166666666666742                  0.5    -3.69689587206909
82 1    0.833333333333371    0.166666666666742    0.166666666666629    -3.69851090831884
83 1    0.666666666666742                  0.5    0.333333333333371    -3.49462565768223
84 1    0.666666666666742                  0.5                  0.5    -3.49462565768933
85 1    0.666666666666629                  0.5    0.666666666666629    -3.74078033524755
86 1    0.666666666666742                  0.5    0.833333333333258    -3.69793559959848
87 1    0.666666666666629    0.666666666666629                    0    -3.69494322698809
88 1    0.666666666666742    0.666666666666742    0.166666666666629    -3.74078033524768
89 1    0.666666666666742    0.666666666666629    0.333333333333371    -3.79679417773924
90 1    0.666666666666742    0.666666666666629                  0.5    -3.74078033524555
91 1    0.666666666666742    0.666666666666629    0.666666666666629    -3.69494322698368
92 1    0.666666666666742    0.666666666666629    0.833333333333258    -3.69856620567079
93 1    0.666666666666742    0.833333333333258                    0    -3.69793559960857
94 1    0.666666666666742    0.833333333333371    0.166666666666629     -3.6900831235213
95 1    0.666666666666742    0.833333333333258    0.333333333333371    -3.69008312351477
96 1    0.666666666666742    0.833333333333371                  0.5    -3.69793559960503
97 1    0.666666666666742    0.833333333333258    0.666666666666629    -3.69856620566935
98 1    0.666666666666742    0.833333333333371    0.833333333333258    -3.69856620567023
99 1    0.833333333333371                    0                    0     -3.6985662056684
100 1    0.833333333333371                    0    0.166666666666629    -3.69856620567188
101 1    0.833333333333371                    0    0.333333333333371    -3.69856620567033
102 1    0.833333333333371                    0                  0.5    -3.69793559960281
103 1    0.833333333333371                    0    0.666666666666629    -3.69793559960129
104 1    0.833333333333371                    0    0.833333333333258    -3.69856620567332
105 1    0.833333333333371    0.166666666666629                    0    -3.69856620567252
106 1    0.833333333333371    0.166666666666629    0.333333333333371    -3.69008312351681
107 1    0.833333333333371    0.833333333333258    0.666666666666629    -3.69856620567037
108 1    0.333333333333371    0.833333333333371    0.833333333333258    -3.69856620566924
109 1    0.333333333333371    0.833333333333371                  0.5    -3.74078033524341
110 1                    0    0.666666666666629    0.666666666666629    -3.69494322698992
111 1                    0    0.666666666666629    0.833333333333258    -3.69793559960003
112 1                    0    0.833333333333258                    0    -3.69856620567191
113 1                    0    0.833333333333371    0.166666666666629    -3.69856620567235
114 1                    0    0.833333333333258    0.333333333333371    -3.69856620567212
115 1                    0    0.833333333333371                  0.5     -3.6979355996026
116 1                    0    0.833333333333258    0.666666666666629    -3.69793559959808
117 1                    0    0.833333333333371    0.833333333333258    -3.69856620567157
118 1    0.166666666666629                    0                    0    -3.69856620567178
119 1    0.166666666666742                    0    0.166666666666629      -3.698566205668
120 1    0.166666666666742                    0    0.333333333333371    -3.69793559960299
121 1    0.166666666666629                    0                  0.5    -3.69793559960365
122 1    0.166666666666629                    0    0.666666666666629    -3.69856620567006
123 1    0.166666666666742                    0    0.833333333333258    -3.69856620567319
124 1    0.166666666666629    0.166666666666629                    0    -3.69856620567137
125 1    0.166666666666742    0.166666666666742    0.166666666666629    -3.69856620567127
126 1    0.166666666666629    0.166666666666629    0.333333333333371    -3.69856620567201
127 1    0.166666666666629    0.166666666666742                  0.5    -3.69856620567033
128 1    0.166666666666742    0.166666666666629    0.666666666666629    -3.69856620567224
129 1    0.166666666666742    0.166666666666629    0.833333333333258    -3.69851090832027
130 1    0.166666666666629    0.333333333333371                    0    -3.69793559961084
131 1    0.166666666666629    0.333333333333371    0.166666666666629    -3.69856620567303
132 1    0.166666666666742    0.333333333333258    0.333333333333371    -3.69856620566948
133 1 1.13686837721616e-13    0.666666666666629                  0.5    -3.69793559960566
134 1    0.166666666666742    0.333333333333371                  0.5    -3.69793559960416
135 1                    0    0.666666666666629    0.333333333333371    -3.69856620567063
136 1                    0    0.666666666666629                    0    -3.69856620567144
137 1                    0                    0    0.166666666666629    -3.69856620567366
138 1                    0                    0    0.333333333333371    -3.69856620567093
139 1                    0                    0                  0.5    -3.69856620567084
140 1                    0                    0    0.666666666666629    -3.69856620567091
141 1                    0                    0    0.833333333333258    -3.69856620567361
142 1                    0    0.166666666666629                    0    -3.69856620567292
143 1                    0    0.166666666666742    0.166666666666629    -3.69856620567096
144 1                    0    0.166666666666629    0.333333333333371    -3.69793559960354
145 1                    0    0.166666666666742                  0.5    -3.69793559960185
146 1                    0    0.166666666666629    0.666666666666629    -3.69856620567219
147 1                    0    0.166666666666629    0.833333333333258    -3.69856620567194
148 1 -5.6843418860808e-14    0.333333333333371                    0    -3.69856620567266
149 1                    0    0.333333333333371    0.166666666666629    -3.69793559960186
150 1                    0    0.333333333333258    0.333333333333371    -3.69494322698196
151 1                    0    0.333333333333371                  0.5    -3.69793559960064
152 1                    0    0.333333333333258    0.666666666666629    -3.69856620566911
153 1                    0    0.333333333333371    0.833333333333258    -3.69856620567072
154 1                    0                  0.5                    0    -3.69856620567197
155 1                    0                  0.5    0.166666666666629    -3.69793559960158
156 1                    0                  0.5    0.333333333333371    -3.69793559960121
157 1                    0                  0.5                  0.5    -3.69856620567016
158 1                    0                  0.5    0.666666666666629    -3.69793559960483
159 1                    0                  0.5    0.833333333333258    -3.69793559960313
160 1                    0    0.666666666666742    0.166666666666629    -3.69856620567008
161 1    0.333333333333371    0.833333333333258    0.666666666666629     -3.6900831235171
162 1    0.166666666666629    0.333333333333258    0.666666666666629    -3.69008312351768
163 1    0.166666666666629                  0.5                    0     -3.6979355996107
164 1    0.333333333333371    0.166666666666629    0.666666666666629    -3.69008312351612
165 1    0.333333333333371    0.166666666666629    0.833333333333258    -3.69008312351967
166 1    0.333333333333371    0.333333333333371                    0    -3.69494322698762
167 1    0.333333333333371    0.333333333333371    0.166666666666629    -3.69856620567346
168 1    0.333333333333371    0.333333333333258    0.333333333333371    -3.69494322698434
169 1    0.333333333333371    0.333333333333371                  0.5    -3.74078033524142
170 1    0.333333333333371    0.333333333333258    0.666666666666629    -3.79679417773821
171 1    0.333333333333371    0.333333333333371    0.833333333333258    -3.74078033524552
172 1    0.333333333333371                  0.5                    0    -3.69793559960895
173 1    0.333333333333371                  0.5    0.166666666666629    -3.69793559960272
174 1    0.333333333333371                  0.5    0.333333333333371    -3.74078033524003
175 1    0.333333333333371                  0.5                  0.5    -3.49462565768361
176 1    0.333333333333371                  0.5    0.666666666666629    -3.49462565768609
177 1    0.333333333333371                  0.5    0.833333333333258    -3.74078033524761
178 1    0.333333333333371    0.666666666666629                    0     -3.6985662056738
179 1    0.333333333333371    0.666666666666742    0.166666666666629    -3.69008312351983
180 1    0.333333333333371    0.666666666666629    0.333333333333371    -3.79679417773848
181 1    0.333333333333371    0.666666666666629                  0.5    -3.49462565768836
182 1    0.333333333333371    0.666666666666629    0.666666666666629    -3.79679417773946
183 1    0.333333333333371    0.666666666666629    0.833333333333258    -3.69008312352315
184 1    0.333333333333371    0.833333333333258                    0    -3.69856620567165
185 1    0.333333333333371    0.833333333333371    0.166666666666629    -3.69008312352084
186 1    0.333333333333371    0.833333333333258    0.333333333333371    -3.74078033524373
187 1    0.333333333333371    0.166666666666742                  0.5    -3.69793559960735
188 1    0.166666666666742    0.333333333333371    0.833333333333258    -3.69008312351511
189 1    0.333333333333371    0.166666666666629    0.333333333333371    -3.69856620567379
190 1    0.333333333333371    0.166666666666629                    0    -3.69793559961023
191 1    0.166666666666742                  0.5    0.166666666666629    -3.69856620566991
192 1    0.166666666666742                  0.5    0.333333333333371    -3.69793559960112
193 1    0.166666666666629                  0.5                  0.5    -3.69689587207482
194 1    0.166666666666629                  0.5    0.666666666666629    -3.74078033524218
195 1    0.166666666666742                  0.5    0.833333333333258    -3.69689587206871
196 1    0.166666666666629    0.666666666666629                    0    -3.69856620567077
197 1    0.166666666666742    0.666666666666742    0.166666666666629    -3.69856620567205
198 1    0.166666666666629    0.666666666666629    0.333333333333371     -3.6900831235196
199 1    0.166666666666742    0.666666666666629                  0.5     -3.7407803352433
200 1    0.166666666666742    0.666666666666629    0.666666666666629    -3.74078033524505
201 1    0.166666666666742    0.666666666666629    0.833333333333258    -3.69008312352184
202 1    0.166666666666742    0.833333333333258                    0    -3.69856620567266
203 1    0.166666666666629    0.833333333333371    0.166666666666629    -3.69851090831857
204 1    0.166666666666742    0.833333333333258    0.333333333333371    -3.69008312351667
205 1    0.166666666666742    0.833333333333371                  0.5    -3.69689587207461
206 1    0.166666666666742    0.833333333333258    0.666666666666629    -3.69008312352054
207 1    0.166666666666629    0.833333333333371    0.833333333333258    -3.69851090831597
208 1    0.333333333333371                    0                    0    -3.69856620566964
209 1    0.333333333333371                    0    0.166666666666629    -3.69793559959687
210 1    0.333333333333371                    0    0.333333333333371     -3.6949432269803
211 1    0.333333333333371                    0                  0.5    -3.69793559960412
212 1    0.333333333333258                    0    0.666666666666629    -3.69856620567168
213 1    0.333333333333371                    0    0.833333333333258    -3.69856620566929
214 1    0.333333333333371    0.166666666666742    0.166666666666629    -3.69856620567188
215 1    0.833333333333371    0.833333333333371    0.833333333333258    -3.69856620567198
ITEM: TIMESTEP
8
ITEM: NUMBER OF ATOMS
215
ITEM: BOX BOUNDS xy xz yz pp pp pp
0.0000000000000000e+00 3.0674292167872000e+01 7.6685730419680000e+00
0.0000000000000000e+00 1.7709810840323001e+01 7.6685730419680000e+00
0.0000000000000000e+00 1.2522727338723000e+01 4.4274527100809999e+00
ITEM: ATOMS id type xsu ysu zsu c_peratom
1 1                    0                    0                    0    -3.69731944714006
2 1    0.500000484736461    0.666650581813315    0.833160398831751     -3.6984242629901
3 1    0.500000484736461    0.833160398831751 0.000188534618587255    -3.69842426299822
4 1                  0.5    0.833245368927464    0.166754631072536    -3.68532846164024
5 1    0.500071738107067    0.832525698582799    0.333701281655067    -3.73088234478537
6 1                  0.5    0.833245368927464                  0.5    -3.68532846164153
7 1    0.500000484736461    0.833160398831751    0.666650581813315      -3.698424263001
8 1    0.500026769821829     0.83332441005939     0.83332441005939    -3.69933186240732
9 1    0.666622409833622                    0                    0    -3.69872952789854
10 1    0.666633883768895 2.99046248528612e-05    0.166668105803069     -3.7005356017271
11 1    0.666622409833622                    0    0.333377590166378    -3.69872952790368
12 1    0.666650581813315 0.000188534618587255    0.500000484736347    -3.69842426299829
13 1    0.666538324142834 0.000385027571610408    0.666538324142721    -3.69763076700438
14 1    0.666650581813315 0.000188534618587255    0.833160398831751    -3.69842426299387
15 1    0.666633883768895    0.166668105803069 2.99046248528612e-05    -3.70053560172852
16 1    0.666633883768895    0.166668105803069    0.166668105803069    -3.70053560172694
17 1    0.666773720906804    0.166705139620603    0.333226279093196    -3.68982692079841
18 1    0.666298718344933    0.167474301417087    0.499928261893047     -3.7308823447792
19 1    0.666298718344933    0.167474301417087    0.666298718344933    -3.73088234478671
20 1    0.666773720906804    0.166705139620603    0.833294860379397     -3.6898269207976
21 1    0.666622409833622    0.333377590166378                    0    -3.69872952789873
22 1    0.666773720906804    0.333226279093196    0.166705139620603    -3.68982692079705
23 1    0.666241819140055    0.333758180859945    0.333758180859945    -3.79851657299292
24 1    0.664713451667012    0.335286548332988                  0.5    -3.51906459236146
25 1    0.499928261893047    0.666298718344933    0.666298718344933    -3.73088234478364
26 1    0.666241819140055    0.333758180859945    0.666241819139941    -3.79851657299422
27 1                  0.5    0.664713451667012                  0.5    -3.51906459236268
28 1    0.499928261893047    0.666298718344933    0.167474301417087    -3.73088234478386
29 1    0.499999515263653 -0.000188534618587255    0.166839601168249    -3.69842426299331
30 1    0.499999515263653 -0.000188534618587255    0.333349418186685    -3.69842426300103
31 1                  0.5                    0                  0.5    -3.70003745854586
32 1    0.500000484736461 0.000188534618587255    0.666650581813315    -3.69842426299975
33 1    0.500000484736461 0.000188534618587255    0.833160398831751    -3.69842426299486
34 1    0.499999515263653    0.166839601168249 -0.000188534618587255    -3.69842426299955
35 1    0.499973230178171     0.16667558994061     0.16667558994061    -3.69933186240918
36 1    0.499999515263653    0.166839601168249    0.333349418186685    -3.69842426299962
37 1                  0.5    0.166754631072536                  0.5    -3.68532846163903
38 1    0.499928261893047    0.167474301417087    0.666298718344933    -3.73088234478986
39 1                  0.5    0.166754631072536    0.833245368927464    -3.68532846164194
40 1    0.499999515263653    0.333349418186685 -0.000188534618587255    -3.69842426299748
41 1    0.499999515263653    0.333349418186685    0.166839601168249    -3.69842426299289
42 1    0.500071738107067    0.333701281655067    0.333701281655067    -3.73088234478688
43 1                  0.5    0.335286548332988                  0.5    -3.51906459236575
44 1                  0.5    0.335286548332988    0.664713451667012    -3.51906459235926
45 1    0.500071738107067    0.333701281655067    0.832525698582799    -3.73088234478485
46 1                  0.5                  0.5                    0    -3.70003745854198
47 1                  0.5                  0.5    0.166754631072536    -3.68532846164113
48 1                  0.5                  0.5    0.335286548332988    -3.51906459236174
49 1                  0.5                  0.5    0.664713451667012    -3.51906459235894
50 1                  0.5                  0.5    0.833245368927464    -3.68532846163997
51 1    0.500000484736461    0.666650581813315 0.000188534618587255     -3.6984242629994
52 1                  0.5    0.664713451667012    0.335286548332988    -3.51906459236328
53 1                  0.5                    0                    0    -3.70003745854024
54 1    0.666773720906804    0.333226279093196    0.833294860379397     -3.6898269207984
55 1    0.666298718344933    0.499928261893047    0.167474301417087    -3.73088234478091
56 1     0.83336677516445     0.16663322483555    0.833366775164336    -3.70197373230238
57 1    0.833331894196931    0.333366116231105 -2.99046249097046e-05    -3.70053560172984
58 1    0.833294860379397    0.333226279093196    0.166705139620603    -3.68982692079911
59 1    0.832525698582913    0.333701281655067    0.333701281655067    -3.73088234478526
60 1    0.832525698582913    0.333701281655067    0.500071738106953     -3.7308823447827
61 1    0.833294860379397    0.333226279093196    0.666773720906804    -3.68982692079842
62 1    0.833331894196931    0.333366116231105    0.833331894196817    -3.70053560173056
63 1    0.833160398831865    0.500000484736347 0.000188534618587255    -3.69842426299931
64 1    0.833245368927464                  0.5    0.166754631072536    -3.68532846163862
65 1    0.832525698582913    0.500071738106953    0.333701281655067    -3.73088234478315
66 1    0.833245368927464                  0.5                  0.5     -3.6853284616398
67 1    0.833160398831865    0.500000484736347    0.666650581813315    -3.69842426300099
68 1     0.83332441005939    0.500026769821829     0.83332441005939    -3.69933186240999
69 1    0.833160398831865    0.666650581813315 0.000188534618587255    -3.69842426299796
70 1    0.833294860379397    0.666773720906804    0.166705139620603    -3.68982692079901
71 1    0.833294860379397    0.666773720906804    0.333226279093196    -3.68982692079908
72 1    0.833160398831865    0.666650581813315    0.500000484736347    -3.69842426299756
73 1    0.833356056383309    0.666643943616691    0.666643943616691    -3.69790009393637
74 1    0.833356056383309    0.666643943616691    0.833356056383309    -3.69790009393631
75 1    0.833331894196931    0.833331894196817 -2.99046249097046e-05    -3.70053560172741
76 1     0.83336677516445    0.833366775164336     0.16663322483555    -3.70197373230228
77 1    0.833331894196931    0.833331894196817    0.333366116231105    -3.70053560172346
78 1     0.83332441005939     0.83332441005939    0.500026769821829    -3.69933186240984
79 1    0.833294860379397    0.166705139620603    0.666773720906804    -3.68982692079688
80 1    0.666650581813315    0.500000484736347 0.000188534618587255    -3.69842426299866
81 1    0.833245368927464    0.166754631072536                  0.5    -3.68532846163966
82 1     0.83336677516445    0.166633224835664     0.16663322483555    -3.70197373230083
83 1    0.664713451667012                  0.5    0.335286548332988    -3.51906459235796
84 1    0.664713451667012                  0.5                  0.5    -3.51906459236319
85 1    0.666298718344933    0.499928261893047    0.666298718344933    -3.73088234478314
86 1    0.666650581813315    0.500000484736347    0.833160398831751     -3.6984242629941
87 1    0.666538324142834    0.666538324142721 0.000385027571610408    -3.69763076699857
88 1    0.666298718344933    0.666298718344933    0.167474301417087    -3.73088234478143
89 1    0.666241819140055    0.666241819139941    0.333758180859945    -3.79851657299226
90 1    0.666298718344933    0.666298718344933    0.499928261893047    -3.73088234478047
91 1    0.666538324142834    0.666538324142721    0.666538324142721    -3.69763076700295
92 1    0.666643943616691    0.666643943616691    0.833356056383309    -3.69790009393547
93 1    0.666650581813315    0.833160398831751 0.000188534618587255    -3.69842426299978
94 1    0.666773720906804    0.833294860379397    0.166705139620603    -3.68982692079743
95 1    0.666773720906804    0.833294860379397    0.333226279093196     -3.6898269207976
96 1    0.666650581813315    0.833160398831751    0.500000484736347    -3.69842426299759
97 1    0.666643943616691    0.833356056383309    0.666643943616691    -3.69790009393695
98 1    0.666643943616691    0.833356056383309    0.833356056383309    -3.69790009393512
99 1    0.833308327425243                    0                    0    -3.69813453426055
100 1    0.833308327425243                    0    0.166691672574757    -3.69813453425775
101 1    0.833331894196931 -2.99046249097046e-05    0.333366116231105    -3.70053560172403
102 1    0.833160398831865 0.000188534618587255    0.500000484736347    -3.69842426299805
103 1    0.833160398831865 0.000188534618587255    0.666650581813315    -3.69842426299917
104 1    0.833331894196931 -2.99046249097046e-05    0.833331894196817    -3.70053560172769
105 1    0.833308327425243    0.166691672574757                    0    -3.69813453425755
106 1    0.833294860379397    0.166705139620603    0.333226279093196    -3.68982692079837
107 1    0.833356056383309    0.833356056383309    0.666643943616691    -3.69790009393863
108 1    0.333366116231218    0.833331894196817    0.833331894196817     -3.7005356017293
109 1    0.333701281655067    0.832525698582799    0.500071738106953     -3.7308823447832
110 1 0.000385027571724095    0.666538324142721    0.666538324142721    -3.69763076700283
111 1 0.000188534618587255    0.666650581813315    0.833160398831751    -3.69842426299486
112 1                    0    0.833308327425243                    0    -3.69813453426119
113 1                    0    0.833308327425243    0.166691672574757    -3.69813453425407