final.lmp (written by ASE) 

215 	 atoms 
1  atom types
0.0      15.231049451975839  xlo xhi
0.0      13.190475751708124  ylo yhi
0.0      12.436099801479385  zlo zhi
     7.6155247259879157      7.6155247259879157      4.3968252505693677  xy xz yz


Atoms 

     1   1                       0                       0                       0
     2   1      1.2692541209979864     0.73280420842822858      2.0726833002465646
     3   1      2.5385082419959728      1.4656084168564572      4.1453666004931291
     4   1      3.8077623629939588      2.1984126252846856      6.2180499007396932
     5   1      5.0770164839919456      2.9312168337129143      8.2907332009862582
     6   1      6.3462706049899316      3.6640210421411421      10.363416501232823
     7   1      1.2692541209979864      2.1984126252846874  2.2204460492503131e-16
     8   1      2.5385082419959728      2.9312168337129156       2.072683300246565
     9   1      3.8077623629939592      3.6640210421411439      4.1453666004931291
    10   1      5.0770164839919456       4.396825250569373      6.2180499007396932
    11   1      6.3462706049899325      5.1296294589976004      8.2907332009862582
    12   1      7.6155247259879175      5.8624336674258295      10.363416501232823
    13   1      2.5385082419959728      4.3968252505693748  4.4408920985006262e-16
    14   1      3.8077623629939592       5.129629458997603      2.0726833002465654
    15   1      5.0770164839919456      5.8624336674258313        4.14536660049313
    16   1      6.3462706049899316      6.5952378758540604      6.2180499007396932
    17   1      7.6155247259879184      7.3280420842822878      8.2907332009862582
    18   1      8.8847788469859044      8.0608462927105169      10.363416501232821
    19   1      3.8077623629939588      6.5952378758540622  1.3322676295501878e-15
    20   1      5.0770164839919456      7.3280420842822913      2.0726833002465654
    21   1      6.3462706049899316      8.0608462927105187        4.14536660049313
    22   1      7.6155247259879175      8.7936505011387478      6.2180499007396932
    23   1      8.8847788469859044      9.5264547095669752        8.29073320098626
    24   1      10.154032967983891      10.259258917995203      10.363416501232823
    25   1      5.0770164839919456      8.7936505011387496  8.8817841970012523e-16
    26   1      6.3462706049899325      9.5264547095669769      2.0726833002465659
    27   1      7.6155247259879184      10.259258917995206      4.1453666004931309
    28   1      8.8847788469859044      10.992063126423435      6.2180499007396941
    29   1      10.154032967983891      11.724867334851663        8.29073320098626
    30   1      11.423287088981876      12.457671543279893      10.363416501232823
    31   1      6.3462706049899316      10.992063126423435  1.7763568394002505e-15
    32   1      7.6155247259879175      11.724867334851664      2.0726833002465659
    33   1      8.8847788469859044      12.457671543279893      4.1453666004931309
    34   1      10.154032967983891      13.190475751708119      6.2180499007396959
    35   1      11.423287088981876       13.92327996013635        8.29073320098626
    36   1      12.692541209979863      14.656084168564577      10.363416501232823
    37   1      2.5385082419959728 -1.1102230246251565e-16 -2.2204460492503131e-16
    38   1      3.8077623629939592     0.73280420842822847      2.0726833002465641
    39   1      5.0770164839919456      1.4656084168564572      4.1453666004931282
    40   1      6.3462706049899325      2.1984126252846856      6.2180499007396932
    41   1      7.6155247259879175      2.9312168337129139      8.2907332009862582
    42   1      8.8847788469859044      3.6640210421411421      10.363416501232821
    43   1      3.8077623629939592      2.1984126252846874                       0
    44   1      5.0770164839919456      2.9312168337129156      2.0726833002465646
    45   1      6.3462706049899316      3.6640210421411443      4.1453666004931282
    46   1      7.6155247259879184       4.396825250569373      6.2180499007396932
    47   1      8.8847788469859044      5.1296294589976004      8.2907332009862582
    48   1      10.154032967983891      5.8624336674258295      10.363416501232821
    49   1      5.0770164839919456      4.3968252505693748  8.8817841970012523e-16
    50   1      6.3462706049899316      5.1296294589976021      2.0726833002465654
    51   1      7.6155247259879175      5.8624336674258313        4.14536660049313
    52   1      8.8847788469859044      6.5952378758540586      6.2180499007396932
    53   1      10.154032967983891      7.3280420842822878      8.2907332009862582
    54   1      11.423287088981876      8.0608462927105169      10.363416501232823
    55   1      6.3462706049899325      6.5952378758540622  8.8817841970012523e-16
    56   1      7.6155247259879184      7.3280420842822904       2.072683300246565
    57   1      8.8847788469859044      8.0608462927105187      4.1453666004931291
    58   1      10.154032967983891       8.793650501138746      6.2180499007396941
    59   1      11.423287088981876      9.5264547095669769      8.2907332009862564
    60   1      12.692541209979863      10.259258917995204      10.363416501232823
    61   1      7.6155247259879175      8.7936505011387496  8.8817841970012523e-16
    62   1      8.8847788469859044      9.5264547095669769      2.0726833002465659
    63   1      10.154032967983891      10.259258917995206      4.1453666004931291
    64   1      11.423287088981876      10.992063126423433      6.2180499007396959
    65   1      12.692541209979863      11.724867334851663        8.29073320098626
    66   1       13.96179533097785      12.457671543279892      10.363416501232823
    67   1      8.8847788469859044      10.992063126423435  2.6645352591003757e-15
    68   1      10.154032967983891      11.724867334851664      2.0726833002465677
    69   1      11.423287088981876      12.457671543279893      4.1453666004931309
    70   1      12.692541209979863      13.190475751708121      6.2180499007396959
    71   1       13.96179533097785      13.923279960136352        8.29073320098626
    72   1      15.231049451975835      14.656084168564579      10.363416501232823
    73   1      5.0770164839919456 -2.2204460492503131e-16 -4.4408920985006262e-16
    74   1      6.3462706049899316     0.73280420842822847      2.0726833002465637
    75   1      7.6155247259879184      1.4656084168564569      4.1453666004931282
    76   1      8.8847788469859044      2.1984126252846852      6.2180499007396914
    77   1      10.154032967983891      2.9312168337129143      8.2907332009862564
    78   1      11.423287088981876      3.6640210421411417      10.363416501232821
    79   1      6.3462706049899316      2.1984126252846869  4.4408920985006262e-16
    80   1      7.6155247259879175      2.9312168337129156      2.0726833002465646
    81   1      8.8847788469859044      3.6640210421411439        4.14536660049313
    82   1      10.154032967983891       4.396825250569373      6.2180499007396932
    83   1      11.423287088981876      5.1296294589976004      8.2907332009862564
    84   1      12.692541209979863      5.8624336674258295      10.363416501232823
    85   1      7.6155247259879184      4.3968252505693748                       0
    86   1      8.8847788469859044       5.129629458997603      2.0726833002465641
    87   1      10.154032967983891      5.8624336674258313      4.1453666004931291
    88   1      11.423287088981876      6.5952378758540595      6.2180499007396941
    89   1      12.692541209979863      7.3280420842822886      8.2907332009862564
    90   1       13.96179533097785      8.0608462927105169      10.363416501232823
    91   1      8.8847788469859044      6.5952378758540604  8.8817841970012523e-16
    92   1      10.154032967983891      7.3280420842822895       2.072683300246565
    93   1      11.423287088981876      8.0608462927105169      4.1453666004931291
    94   1      12.692541209979863       8.793650501138746      6.2180499007396941
    95   1       13.96179533097785      9.5264547095669752        8.29073320098626
    96   1      15.231049451975835      10.259258917995203      10.363416501232823
    97   1      10.154032967983891      8.7936505011387496  1.7763568394002505e-15
    98   1      11.423287088981876      9.5264547095669769      2.0726833002465659
    99   1      12.692541209979863      10.259258917995204      4.1453666004931309
   100   1       13.96179533097785      10.992063126423435      6.2180499007396941
   101   1      15.231049451975835      11.724867334851663        8.29073320098626
   102   1       16.50030357297382       12.45767154327989      10.363416501232823
   103   1      11.423287088981876      10.992063126423435  1.7763568394002505e-15
   104   1      12.692541209979863      11.724867334851664       2.072683300246565
   105   1       13.96179533097785      12.457671543279893      4.1453666004931318
   106   1      15.231049451975835      13.190475751708121       6.218049900739695
   107   1       16.50030357297382      13.923279960136352        8.29073320098626
   108   1      17.769557693971809      14.656084168564579      10.363416501232825
   109   1      7.6155247259879175 -4.4408920985006262e-16 -4.4408920985006262e-16
   110   1      8.8847788469859044     0.73280420842822802      2.0726833002465646
   111   1      10.154032967983891      1.4656084168564565      4.1453666004931282
   112   1      11.423287088981876      2.1984126252846852      6.2180499007396932
   113   1      12.692541209979863      2.9312168337129134      8.2907332009862564
   114   1      13.961795330977848      3.6640210421411417       10.36341650123282
   115   1      8.8847788469859044      2.1984126252846874 -8.8817841970012523e-16
   116   1      10.154032967983891      2.9312168337129156      2.0726833002465641
   117   1      11.423287088981876      3.6640210421411439      4.1453666004931273
   118   1      12.692541209979863       4.396825250569373      6.2180499007396923
   119   1       13.96179533097785      5.1296294589976004      8.2907332009862564
   120   1      15.231049451975835      5.8624336674258295       10.36341650123282
   121   1      10.154032967983891      4.3968252505693739                       0
   122   1      11.423287088981876      5.1296294589976021       2.072683300246565
   123   1      12.692541209979863      5.8624336674258313      4.1453666004931291
   124   1       13.96179533097785      6.5952378758540586      6.2180499007396923
   125   1      15.231049451975835      7.3280420842822878        8.29073320098626
   126   1       16.50030357297382      8.0608462927105169      10.363416501232823
   127   1      11.423287088981876      6.5952378758540613  8.8817841970012523e-16
   128   1      12.692541209979863      7.3280420842822895      2.0726833002465659
   129   1       13.96179533097785      8.0608462927105187      4.1453666004931309
   130   1      15.231049451975835       8.793650501138746      6.2180499007396941
   131   1      17.769557693971805      10.259258917995203       10.36341650123282
   132   1      12.692541209979863      8.7936505011387496  8.8817841970012523e-16
   133   1       13.96179533097785      9.5264547095669769       2.072683300246565
   134   1      15.231049451975835      10.259258917995204        4.14536660049313
   135   1       16.50030357297382      10.992063126423435       6.218049900739695
   136   1      17.769557693971809      11.724867334851663      8.2907332009862582
   137   1      19.038811814969794      12.457671543279892      10.363416501232821
   138   1      13.961795330977848      10.992063126423435  1.7763568394002505e-15
   139   1      15.231049451975835      11.724867334851663      2.0726833002465668
   140   1       16.50030357297382      12.457671543279893        4.14536660049313
   141   1      17.769557693971805      13.190475751708121       6.218049900739695
   142   1      19.038811814969794      13.923279960136348        8.29073320098626
   143   1      20.308065935967779      14.656084168564576      10.363416501232823
   144   1      10.154032967983891 -4.4408920985006262e-16 -8.8817841970012523e-16
   145   1      11.423287088981876     0.73280420842822824      2.0726833002465632
   146   1      12.692541209979863      1.4656084168564569      4.1453666004931273
   147   1       13.96179533097785      2.1984126252846847      6.2180499007396923
   148   1      15.231049451975837      2.9312168337129139      8.2907332009862564
   149   1      16.500303572973824      3.6640210421411412       10.36341650123282
   150   1      11.423287088981876      2.1984126252846865                       0
   151   1      12.692541209979863      2.9312168337129147      2.0726833002465641
   152   1       13.96179533097785      3.6640210421411434      4.1453666004931291
   153   1      15.231049451975835      4.3968252505693712      6.2180499007396923
   154   1      16.500303572973824      5.1296294589976004        8.29073320098626
   155   1      17.769557693971809      5.8624336674258277      10.363416501232823
   156   1      12.692541209979863      4.3968252505693739  8.8817841970012523e-16
   157   1       13.96179533097785      5.1296294589976021      2.0726833002465641
   158   1      15.231049451975835      5.8624336674258313      4.1453666004931291
   159   1       16.50030357297382      6.5952378758540586      6.2180499007396941
   160   1      17.769557693971809      7.3280420842822878        8.29073320098626
   161   1      19.038811814969797      8.0608462927105151      10.363416501232823
   162   1       13.96179533097785      6.5952378758540604  8.8817841970012523e-16
   163   1      15.231049451975835      7.3280420842822895       2.072683300246565
   164   1       16.50030357297382      8.0608462927105187      4.1453666004931282
   165   1      17.769557693971809       8.793650501138746       6.218049900739695
   166   1      19.038811814969797      9.5264547095669752      8.2907332009862582
   167   1      20.308065935967782      10.259258917995201      10.363416501232821
   168   1      15.231049451975837      8.7936505011387496                       0
   169   1      16.500303572973824      9.5264547095669769       2.072683300246565
   170   1      17.769557693971809      10.259258917995206      4.1453666004931282
   171   1      19.038811814969797      10.992063126423435      6.2180499007396932
   172   1      20.308065935967782      11.724867334851663      8.2907332009862582
   173   1      21.577320056965767      12.457671543279892      10.363416501232821
   174   1      16.500303572973824      10.992063126423435                       0
   175   1      17.769557693971809      11.724867334851664       2.072683300246565
   176   1      19.038811814969797      12.457671543279893        4.14536660049313
   177   1      20.308065935967782      13.190475751708121      6.2180499007396932
   178   1      21.577320056965767      13.923279960136352        8.29073320098626
   179   1      22.846574177963756      14.656084168564577      10.363416501232823
   180   1      12.692541209979863 -1.3322676295501878e-15 -8.8817841970012523e-16
   181   1       13.96179533097785      0.7328042084282278      2.0726833002465632
   182   1      15.231049451975835      1.4656084168564556      4.1453666004931291
   183   1       16.50030357297382      2.1984126252846843      6.2180499007396923
   184   1      17.769557693971809      2.9312168337129125      8.2907332009862564
   185   1      19.038811814969794      3.6640210421411408      10.363416501232823
   186   1       13.96179533097785      2.1984126252846865                       0
   187   1      15.231049451975835      2.9312168337129152      2.0726833002465641
   188   1       16.50030357297382       3.664021042141143      4.1453666004931291
   189   1      17.769557693971805      4.3968252505693721      6.2180499007396923
   190   1      19.038811814969797      5.1296294589975995      8.2907332009862564
   191   1      20.308065935967782      5.8624336674258286       10.36341650123282
   192   1      15.231049451975835       4.396825250569373                       0
   193   1       16.50030357297382      5.1296294589976021       2.072683300246565
   194   1      17.769557693971809      5.8624336674258304      4.1453666004931282
   195   1      19.038811814969794      6.5952378758540586      6.2180499007396914
   196   1      20.308065935967782      7.3280420842822869      8.2907332009862582
   197   1      21.577320056965767      8.0608462927105151      10.363416501232821
   198   1       16.50030357297382      6.5952378758540604                       0
   199   1      17.769557693971805      7.3280420842822895       2.072683300246565
   200   1      19.038811814969794      8.0608462927105169        4.14536660049313
   201   1      20.308065935967779       8.793650501138746      6.2180499007396932
   202   1      21.577320056965767      9.5264547095669734        8.29073320098626
   203   1      22.846574177963753      10.259258917995201      10.363416501232823
   204   1      17.769557693971809      8.7936505011387496                       0
   205   1      19.038811814969797      9.5264547095669769      2.0726833002465632
   206   1      20.308065935967782      10.259258917995204        4.14536660049313
   207   1      21.577320056965767      10.992063126423435      6.2180499007396932
   208   1      22.846574177963756      11.724867334851663      8.2907332009862564
   209   1      24.115828298961741      12.457671543279892      10.363416501232823
   210   1      19.038811814969794      10.992063126423435  1.7763568394002505e-15
   211   1      20.308065935967782      11.724867334851663       2.072683300246565
   212   1      21.577320056965767      12.457671543279892        4.14536660049313
   213   1      22.846574177963753      13.190475751708119      6.2180499007396914
   214   1      24.115828298961741      13.923279960136348      8.2907332009862582
   215   1      25.385082419959726      14.656084168564576      10.363416501232825
