 #POSCAR written by GB_code
 
         312  atoms
           1  atom types
 
      0.000000000000      45.410307200000  xlo xhi
      0.000000000000       7.180000000000  ylo yhi
      0.000000000000      11.352576800000  zlo zhi
 
Masses
 
            1   63.54600000             # Cu
 
Atoms # atomic
 
         1    1        2.270515360000       1.795000000000       4.541030720000
         2    1        2.270515360000       5.385000000000       4.541030720000
         3    1        7.946803760000       1.795000000000       4.541030720000
         4    1        7.946803760000       5.385000000000       4.541030720000
         5    1       13.623092160000       1.795000000000       4.541030720000
         6    1       13.623092160000       5.385000000000       4.541030720000
         7    1       19.299380560000       1.795000000000       4.541030720000
         8    1       19.299380560000       5.385000000000       4.541030720000
         9    1        2.270515360000       1.795000000000      10.217319120000
        10    1        2.270515360000       5.385000000000      10.217319120000
        11    1        7.946803760000       1.795000000000      10.217319120000
        12    1        7.946803760000       5.385000000000      10.217319120000
        13    1       13.623092160000       1.795000000000      10.217319120000
        14    1       13.623092160000       5.385000000000      10.217319120000
        15    1       19.299380560000       1.795000000000      10.217319120000
        16    1       19.299380560000       5.385000000000      10.217319120000
        17    1        0.000000000000       1.795000000000       0.000000000000
        18    1        0.000000000000       5.385000000000       0.000000000000
        19    1        5.676288400000       1.795000000000       0.000000000000
        20    1        5.676288400000       5.385000000000       0.000000000000
        21    1       11.352576800000       1.795000000000       0.000000000000
        22    1       11.352576800000       5.385000000000       0.000000000000
        23    1       17.028865200000       1.795000000000       0.000000000000
        24    1       17.028865200000       5.385000000000       0.000000000000
        25    1        0.000000000000       1.795000000000       5.676288400000
        26    1        0.000000000000       5.385000000000       5.676288400000
        27    1        5.676288400000       1.795000000000       5.676288400000
        28    1        5.676288400000       5.385000000000       5.676288400000
        29    1       11.352576800000       1.795000000000       5.676288400000
        30    1       11.352576800000       5.385000000000       5.676288400000
        31    1       17.028865200000       1.795000000000       5.676288400000
        32    1       17.028865200000       5.385000000000       5.676288400000
        33    1        1.135257680000       1.795000000000       2.270515360000
        34    1        1.135257680000       5.385000000000       2.270515360000
        35    1        6.811546080000       1.795000000000       2.270515360000
        36    1        6.811546080000       5.385000000000       2.270515360000
        37    1       12.487834480000       1.795000000000       2.270515360000
        38    1       12.487834480000       5.385000000000       2.270515360000
        39    1       18.164122880000       1.795000000000       2.270515360000
        40    1       18.164122880000       5.385000000000       2.270515360000
        41    1        1.135257680000       1.795000000000       7.946803760000
        42    1        1.135257680000       5.385000000000       7.946803760000
        43    1        6.811546080000       1.795000000000       7.946803760000
        44    1        6.811546080000       5.385000000000       7.946803760000
        45    1       12.487834480000       1.795000000000       7.946803760000
        46    1       12.487834480000       5.385000000000       7.946803760000
        47    1       18.164122880000       1.795000000000       7.946803760000
        48    1       18.164122880000       5.385000000000       7.946803760000
        49    1        3.405773040000       1.795000000000       1.135257680000
        50    1        3.405773040000       5.385000000000       1.135257680000
        51    1        9.082061440000       1.795000000000       1.135257680000
        52    1        9.082061440000       5.385000000000       1.135257680000
        53    1       14.758349840000       1.795000000000       1.135257680000
        54    1       14.758349840000       5.385000000000       1.135257680000
        55    1       20.434638240000       1.795000000000       1.135257680000
        56    1       20.434638240000       5.385000000000       1.135257680000
        57    1        3.405773040000       1.795000000000       6.811546080000
        58    1        3.405773040000       5.385000000000       6.811546080000
        59    1        9.082061440000       1.795000000000       6.811546080000
        60    1        9.082061440000       5.385000000000       6.811546080000
        61    1       14.758349840000       1.795000000000       6.811546080000
        62    1       14.758349840000       5.385000000000       6.811546080000
        63    1       20.434638240000       1.795000000000       6.811546080000
        64    1       20.434638240000       5.385000000000       6.811546080000
        65    1        4.541030720000       1.795000000000       3.405773040000
        66    1        4.541030720000       5.385000000000       3.405773040000
        67    1       10.217319120000       1.795000000000       3.405773040000
        68    1       10.217319120000       5.385000000000       3.405773040000
        69    1       15.893607520000       1.795000000000       3.405773040000
        70    1       15.893607520000       5.385000000000       3.405773040000
        71    1       21.569895920000       1.795000000000       3.405773040000
        72    1       21.569895920000       5.385000000000       3.405773040000
        73    1        4.541030720000       1.795000000000       9.082061440000
        74    1        4.541030720000       5.385000000000       9.082061440000
        75    1       10.217319120000       1.795000000000       9.082061440000
        76    1       10.217319120000       5.385000000000       9.082061440000
        77    1       15.893607520000       1.795000000000       9.082061440000
        78    1       15.893607520000       5.385000000000       9.082061440000
        79    1       21.569895920000       1.795000000000       9.082061440000
        80    1       21.569895920000       5.385000000000       9.082061440000
        81    1        6.243917240000       0.000000000000       3.973401880000
        82    1        6.243917240000       3.590000000000       3.973401880000
        83    1       11.920205640000       0.000000000000       3.973401880000
        84    1       11.920205640000       3.590000000000       3.973401880000
        85    1       17.596494040000       0.000000000000       3.973401880000
        86    1       17.596494040000       3.590000000000       3.973401880000
        87    1        6.243917240000       0.000000000000       9.649690280000
        88    1        6.243917240000       3.590000000000       9.649690280000
        89    1       11.920205640000       0.000000000000       9.649690280000
        90    1       11.920205640000       3.590000000000       9.649690280000
        91    1       17.596494040000       0.000000000000       9.649690280000
        92    1       17.596494040000       3.590000000000       9.649690280000
        93    1        3.973401880000       0.000000000000       5.108659560000
        94    1        3.973401880000       3.590000000000       5.108659560000
        95    1        9.649690280000       0.000000000000       5.108659560000
        96    1        9.649690280000       3.590000000000       5.108659560000
        97    1       15.325978680000       0.000000000000       5.108659560000
        98    1       15.325978680000       3.590000000000       5.108659560000
        99    1       21.002267080000       0.000000000000       5.108659560000
       100    1       21.002267080000       3.590000000000       5.108659560000
       101    1        3.973401880000       0.000000000000      10.784947960000
       102    1        3.973401880000       3.590000000000      10.784947960000
       103    1        9.649690280000       0.000000000000      10.784947960000
       104    1        9.649690280000       3.590000000000      10.784947960000
       105    1       15.325978680000       0.000000000000      10.784947960000
       106    1       15.325978680000       3.590000000000      10.784947960000
       107    1       21.002267080000       0.000000000000      10.784947960000
       108    1       21.002267080000       3.590000000000      10.784947960000
       109    1        1.702886520000       0.000000000000       0.567628840000
       110    1        1.702886520000       3.590000000000       0.567628840000
       111    1        7.379174920000       0.000000000000       0.567628840000
       112    1        7.379174920000       3.590000000000       0.567628840000
       113    1       13.055463320000       0.000000000000       0.567628840000
       114    1       13.055463320000       3.590000000000       0.567628840000
       115    1       18.731751720000       0.000000000000       0.567628840000
       116    1       18.731751720000       3.590000000000       0.567628840000
       117    1        1.702886520000       0.000000000000       6.243917240000
       118    1        1.702886520000       3.590000000000       6.243917240000
       119    1        7.379174920000       0.000000000000       6.243917240000
       120    1        7.379174920000       3.590000000000       6.243917240000
       121    1       13.055463320000       0.000000000000       6.243917240000
       122    1       13.055463320000       3.590000000000       6.243917240000
       123    1       18.731751720000       0.000000000000       6.243917240000
       124    1       18.731751720000       3.590000000000       6.243917240000
       125    1        2.838144200000       0.000000000000       2.838144200000
       126    1        2.838144200000       3.590000000000       2.838144200000
       127    1        8.514432600000       0.000000000000       2.838144200000
       128    1        8.514432600000       3.590000000000       2.838144200000
       129    1       14.190721000000       0.000000000000       2.838144200000
       130    1       14.190721000000       3.590000000000       2.838144200000
       131    1       19.867009400000       0.000000000000       2.838144200000
       132    1       19.867009400000       3.590000000000       2.838144200000
       133    1        2.838144200000       0.000000000000       8.514432600000
       134    1        2.838144200000       3.590000000000       8.514432600000
       135    1        8.514432600000       0.000000000000       8.514432600000
       136    1        8.514432600000       3.590000000000       8.514432600000
       137    1       14.190721000000       0.000000000000       8.514432600000
       138    1       14.190721000000       3.590000000000       8.514432600000
       139    1       19.867009400000       0.000000000000       8.514432600000
       140    1       19.867009400000       3.590000000000       8.514432600000
       141    1        5.108659560000       0.000000000000       1.702886520000
       142    1        5.108659560000       3.590000000000       1.702886520000
       143    1       10.784947960000       0.000000000000       1.702886520000
       144    1       10.784947960000       3.590000000000       1.702886520000
       145    1       16.461236360000       0.000000000000       1.702886520000
       146    1       16.461236360000       3.590000000000       1.702886520000
       147    1        5.108659560000       0.000000000000       7.379174920000
       148    1        5.108659560000       3.590000000000       7.379174920000
       149    1       10.784947960000       0.000000000000       7.379174920000
       150    1       10.784947960000       3.590000000000       7.379174920000
       151    1       16.461236360000       0.000000000000       7.379174920000
       152    1       16.461236360000       3.590000000000       7.379174920000
       153    1       -2.270515360000       1.795000000000       4.541030720000
       154    1       -2.270515360000       5.385000000000       4.541030720000
       155    1       -7.946803760000       1.795000000000       4.541030720000
       156    1       -7.946803760000       5.385000000000       4.541030720000
       157    1      -13.623092160000       1.795000000000       4.541030720000
       158    1      -13.623092160000       5.385000000000       4.541030720000
       159    1      -19.299380560000       1.795000000000       4.541030720000
       160    1      -19.299380560000       5.385000000000       4.541030720000
       161    1       -2.270515360000       1.795000000000      10.217319120000
       162    1       -2.270515360000       5.385000000000      10.217319120000
       163    1       -7.946803760000       1.795000000000      10.217319120000
       164    1       -7.946803760000       5.385000000000      10.217319120000
       165    1      -13.623092160000       1.795000000000      10.217319120000
       166    1      -13.623092160000       5.385000000000      10.217319120000
       167    1      -19.299380560000       1.795000000000      10.217319120000
       168    1      -19.299380560000       5.385000000000      10.217319120000
       169    1       -4.541030720000       1.795000000000       3.405773040000
       170    1       -4.541030720000       5.385000000000       3.405773040000
       171    1      -10.217319120000       1.795000000000       3.405773040000
       172    1      -10.217319120000       5.385000000000       3.405773040000
       173    1      -15.893607520000       1.795000000000       3.405773040000
       174    1      -15.893607520000       5.385000000000       3.405773040000
       175    1      -21.569895920000       1.795000000000       3.405773040000
       176    1      -21.569895920000       5.385000000000       3.405773040000
       177    1       -4.541030720000       1.795000000000       9.082061440000
       178    1       -4.541030720000       5.385000000000       9.082061440000
       179    1      -10.217319120000       1.795000000000       9.082061440000
       180    1      -10.217319120000       5.385000000000       9.082061440000
       181    1      -15.893607520000       1.795000000000       9.082061440000
       182    1      -15.893607520000       5.385000000000       9.082061440000
       183    1      -21.569895920000       1.795000000000       9.082061440000
       184    1      -21.569895920000       5.385000000000       9.082061440000
       185    1       -3.405773040000       1.795000000000       1.135257680000
       186    1       -3.405773040000       5.385000000000       1.135257680000
       187    1       -9.082061440000       1.795000000000       1.135257680000
       188    1       -9.082061440000       5.385000000000       1.135257680000
       189    1      -14.758349840000       1.795000000000       1.135257680000
       190    1      -14.758349840000       5.385000000000       1.135257680000
       191    1      -20.434638240000       1.795000000000       1.135257680000
       192    1      -20.434638240000       5.385000000000       1.135257680000
       193    1       -3.405773040000       1.795000000000       6.811546080000
       194    1       -3.405773040000       5.385000000000       6.811546080000
       195    1       -9.082061440000       1.795000000000       6.811546080000
       196    1       -9.082061440000       5.385000000000       6.811546080000
       197    1      -14.758349840000       1.795000000000       6.811546080000
       198    1      -14.758349840000       5.385000000000       6.811546080000
       199    1      -20.434638240000       1.795000000000       6.811546080000
       200    1      -20.434638240000       5.385000000000       6.811546080000
       201    1       -1.135257680000       1.795000000000       2.270515360000
       202    1       -1.135257680000       5.385000000000       2.270515360000
       203    1       -6.811546080000       1.795000000000       2.270515360000
       204    1       -6.811546080000       5.385000000000       2.270515360000
       205    1      -12.487834480000       1.795000000000       2.270515360000
       206    1      -12.487834480000       5.385000000000       2.270515360000
       207    1      -18.164122880000       1.795000000000       2.270515360000
       208    1      -18.164122880000       5.385000000000       2.270515360000
       209    1       -1.135257680000       1.795000000000       7.946803760000
       210    1       -1.135257680000       5.385000000000       7.946803760000
       211    1       -6.811546080000       1.795000000000       7.946803760000
       212    1       -6.811546080000       5.385000000000       7.946803760000
       213    1      -12.487834480000       1.795000000000       7.946803760000
       214    1      -12.487834480000       5.385000000000       7.946803760000
       215    1      -18.164122880000       1.795000000000       7.946803760000
       216    1      -18.164122880000       5.385000000000       7.946803760000
       217    1       -5.676288400000       1.795000000000       0.000000000000
       218    1       -5.676288400000       5.385000000000       0.000000000000
       219    1      -11.352576800000       1.795000000000       0.000000000000
       220    1      -11.352576800000       5.385000000000       0.000000000000
       221    1      -17.028865200000       1.795000000000       0.000000000000
       222    1      -17.028865200000       5.385000000000       0.000000000000
       223    1      -22.705153600000       1.795000000000       0.000000000000
       224    1      -22.705153600000       5.385000000000       0.000000000000
       225    1       -5.676288400000       1.795000000000       5.676288400000
       226    1       -5.676288400000       5.385000000000       5.676288400000
       227    1      -11.352576800000       1.795000000000       5.676288400000
       228    1      -11.352576800000       5.385000000000       5.676288400000
       229    1      -17.028865200000       1.795000000000       5.676288400000
       230    1      -17.028865200000       5.385000000000       5.676288400000
       231    1      -22.705153600000       1.795000000000       5.676288400000
       232    1      -22.705153600000       5.385000000000       5.676288400000
       233    1       -3.973401880000       0.000000000000       5.108659560000
       234    1       -3.973401880000       3.590000000000       5.108659560000
       235    1       -9.649690280000       0.000000000000       5.108659560000
       236    1       -9.649690280000       3.590000000000       5.108659560000
       237    1      -15.325978680000       0.000000000000       5.108659560000
       238    1      -15.325978680000       3.590000000000       5.108659560000
       239    1      -21.002267080000       0.000000000000       5.108659560000
       240    1      -21.002267080000       3.590000000000       5.108659560000
       241    1       -3.973401880000       0.000000000000      10.784947960000
       242    1       -3.973401880000       3.590000000000      10.784947960000
       243    1       -9.649690280000       0.000000000000      10.784947960000
       244    1       -9.649690280000       3.590000000000      10.784947960000
       245    1      -15.325978680000       0.000000000000      10.784947960000
       246    1      -15.325978680000       3.590000000000      10.784947960000
       247    1      -21.002267080000       0.000000000000      10.784947960000
       248    1      -21.002267080000       3.590000000000      10.784947960000
       249    1       -0.567628840000       0.000000000000       3.973401880000
       250    1       -0.567628840000       3.590000000000       3.973401880000
       251    1       -6.243917240000       0.000000000000       3.973401880000
       252    1       -6.243917240000       3.590000000000       3.973401880000
       253    1      -11.920205640000       0.000000000000       3.973401880000
       254    1      -11.920205640000       3.590000000000       3.973401880000
       255    1      -17.596494040000       0.000000000000       3.973401880000
       256    1      -17.596494040000       3.590000000000       3.973401880000
       257    1       -0.567628840000       0.000000000000       9.649690280000
       258    1       -0.567628840000       3.590000000000       9.649690280000
       259    1       -6.243917240000       0.000000000000       9.649690280000
       260    1       -6.243917240000       3.590000000000       9.649690280000
       261    1      -11.920205640000       0.000000000000       9.649690280000
       262    1      -11.920205640000       3.590000000000       9.649690280000
       263    1      -17.596494040000       0.000000000000       9.649690280000
       264    1      -17.596494040000       3.590000000000       9.649690280000
       265    1       -5.108659560000       0.000000000000       1.702886520000
       266    1       -5.108659560000       3.590000000000       1.702886520000
       267    1      -10.784947960000       0.000000000000       1.702886520000
       268    1      -10.784947960000       3.590000000000       1.702886520000
       269    1      -16.461236360000       0.000000000000       1.702886520000
       270    1      -16.461236360000       3.590000000000       1.702886520000
       271    1      -22.137524760000       0.000000000000       1.702886520000
       272    1      -22.137524760000       3.590000000000       1.702886520000
       273    1       -5.108659560000       0.000000000000       7.379174920000
       274    1       -5.108659560000       3.590000000000       7.379174920000
       275    1      -10.784947960000       0.000000000000       7.379174920000
       276    1      -10.784947960000       3.590000000000       7.379174920000
       277    1      -16.461236360000       0.000000000000       7.379174920000
       278    1      -16.461236360000       3.590000000000       7.379174920000
       279    1      -22.137524760000       0.000000000000       7.379174920000
       280    1      -22.137524760000       3.590000000000       7.379174920000
       281    1       -2.838144200000       0.000000000000       2.838144200000
       282    1       -2.838144200000       3.590000000000       2.838144200000
       283    1       -8.514432600000       0.000000000000       2.838144200000
       284    1       -8.514432600000       3.590000000000       2.838144200000
       285    1      -14.190721000000       0.000000000000       2.838144200000
       286    1      -14.190721000000       3.590000000000       2.838144200000
       287    1      -19.867009400000       0.000000000000       2.838144200000
       288    1      -19.867009400000       3.590000000000       2.838144200000
       289    1       -2.838144200000       0.000000000000       8.514432600000
       290    1       -2.838144200000       3.590000000000       8.514432600000
       291    1       -8.514432600000       0.000000000000       8.514432600000
       292    1       -8.514432600000       3.590000000000       8.514432600000
       293    1      -14.190721000000       0.000000000000       8.514432600000
       294    1      -14.190721000000       3.590000000000       8.514432600000
       295    1      -19.867009400000       0.000000000000       8.514432600000
       296    1      -19.867009400000       3.590000000000       8.514432600000
       297    1       -1.702886520000       0.000000000000       0.567628840000
       298    1       -1.702886520000       3.590000000000       0.567628840000
       299    1       -7.379174920000       0.000000000000       0.567628840000
       300    1       -7.379174920000       3.590000000000       0.567628840000
       301    1      -13.055463320000       0.000000000000       0.567628840000
       302    1      -13.055463320000       3.590000000000       0.567628840000
       303    1      -18.731751720000       0.000000000000       0.567628840000
       304    1      -18.731751720000       3.590000000000       0.567628840000
       305    1       -1.702886520000       0.000000000000       6.243917240000
       306    1       -1.702886520000       3.590000000000       6.243917240000
       307    1       -7.379174920000       0.000000000000       6.243917240000
       308    1       -7.379174920000       3.590000000000       6.243917240000
       309    1      -13.055463320000       0.000000000000       6.243917240000
       310    1      -13.055463320000       3.590000000000       6.243917240000
       311    1      -18.731751720000       0.000000000000       6.243917240000
       312    1      -18.731751720000       3.590000000000       6.243917240000
