 #POSCAR written by GB_code
 
        1072  atoms
           1  atom types
 
      0.000000000000      59.207796780000  xlo xhi
      0.000000000000      29.603898390000  ylo yhi
      0.000000000000       7.180000000000  zlo zhi
 
Masses
 
            1   63.54600000             # Cu
 
Atoms # atomic
 
         1    1       15.237300640000       1.741405790000       1.795000000000
         2    1       15.237300640000      16.543354980000       1.795000000000
         3    1       15.237300640000       1.741405790000       5.385000000000
         4    1       15.237300640000      16.543354980000       5.385000000000
         5    1        3.918163020000       0.870702890000       1.795000000000
         6    1        3.918163020000      15.672652090000       1.795000000000
         7    1       18.720112220000       0.870702890000       1.795000000000
         8    1       18.720112220000      15.672652090000       1.795000000000
         9    1        3.918163020000       0.870702890000       5.385000000000
        10    1        3.918163020000      15.672652090000       5.385000000000
        11    1       18.720112220000       0.870702890000       5.385000000000
        12    1       18.720112220000      15.672652090000       5.385000000000
        13    1        7.400974600000       0.000000000000       1.795000000000
        14    1        7.400974600000      14.801949200000       1.795000000000
        15    1       22.202923790000       0.000000000000       1.795000000000
        16    1       22.202923790000      14.801949200000       1.795000000000
        17    1        7.400974600000       0.000000000000       5.385000000000
        18    1        7.400974600000      14.801949200000       5.385000000000
        19    1       22.202923790000       0.000000000000       5.385000000000
        20    1       22.202923790000      14.801949200000       5.385000000000
        21    1        1.306054340000       5.224217360000       1.795000000000
        22    1        1.306054340000      20.026166560000       1.795000000000
        23    1       16.108003540000       5.224217360000       1.795000000000
        24    1       16.108003540000      20.026166560000       1.795000000000
        25    1        1.306054340000       5.224217360000       5.385000000000
        26    1        1.306054340000      20.026166560000       5.385000000000
        27    1       16.108003540000       5.224217360000       5.385000000000
        28    1       16.108003540000      20.026166560000       5.385000000000
        29    1        2.612108680000       3.047460130000       1.795000000000
        30    1        2.612108680000      17.849409320000       1.795000000000
        31    1       17.414057880000       3.047460130000       1.795000000000
        32    1       17.414057880000      17.849409320000       1.795000000000
        33    1        2.612108680000       3.047460130000       5.385000000000
        34    1        2.612108680000      17.849409320000       5.385000000000
        35    1       17.414057880000       3.047460130000       5.385000000000
        36    1       17.414057880000      17.849409320000       5.385000000000
        37    1        4.788865920000       4.353514470000       1.795000000000
        38    1        4.788865920000      19.155463670000       1.795000000000
        39    1       19.590815110000       4.353514470000       1.795000000000
        40    1       19.590815110000      19.155463670000       1.795000000000
        41    1        4.788865920000       4.353514470000       5.385000000000
        42    1        4.788865920000      19.155463670000       5.385000000000
        43    1       19.590815110000       4.353514470000       5.385000000000
        44    1       19.590815110000      19.155463670000       5.385000000000
        45    1        6.094920260000       2.176757230000       1.795000000000
        46    1        6.094920260000      16.978706430000       1.795000000000
        47    1       20.896869450000       2.176757230000       1.795000000000
        48    1       20.896869450000      16.978706430000       1.795000000000
        49    1        6.094920260000       2.176757230000       5.385000000000
        50    1        6.094920260000      16.978706430000       5.385000000000
        51    1       20.896869450000       2.176757230000       5.385000000000
        52    1       20.896869450000      16.978706430000       5.385000000000
        53    1        8.271677490000       3.482811580000       1.795000000000
        54    1        8.271677490000      18.284760770000       1.795000000000
        55    1       23.073626690000       3.482811580000       1.795000000000
        56    1       23.073626690000      18.284760770000       1.795000000000
        57    1        8.271677490000       3.482811580000       5.385000000000
        58    1        8.271677490000      18.284760770000       5.385000000000
        59    1       23.073626690000       3.482811580000       5.385000000000
        60    1       23.073626690000      18.284760770000       5.385000000000
        61    1        9.577731830000       1.306054340000       1.795000000000
        62    1        9.577731830000      16.108003540000       1.795000000000
        63    1       24.379681030000       1.306054340000       1.795000000000
        64    1       24.379681030000      16.108003540000       1.795000000000
        65    1        9.577731830000       1.306054340000       5.385000000000
        66    1        9.577731830000      16.108003540000       5.385000000000
        67    1       24.379681030000       1.306054340000       5.385000000000
        68    1       24.379681030000      16.108003540000       5.385000000000
        69    1       11.754489070000       2.612108680000       1.795000000000
        70    1       11.754489070000      17.414057880000       1.795000000000
        71    1       26.556438260000       2.612108680000       1.795000000000
        72    1       26.556438260000      17.414057880000       1.795000000000
        73    1       11.754489070000       2.612108680000       5.385000000000
        74    1       11.754489070000      17.414057880000       5.385000000000
        75    1       26.556438260000       2.612108680000       5.385000000000
        76    1       26.556438260000      17.414057880000       5.385000000000
        77    1       13.060543410000       0.435351450000       1.795000000000
        78    1       13.060543410000      15.237300640000       1.795000000000
        79    1       27.862492600000       0.435351450000       1.795000000000
        80    1       27.862492600000      15.237300640000       1.795000000000
        81    1       13.060543410000       0.435351450000       5.385000000000
        82    1       13.060543410000      15.237300640000       5.385000000000
        83    1       27.862492600000       0.435351450000       5.385000000000
        84    1       27.862492600000      15.237300640000       5.385000000000
        85    1        0.000000000000       7.400974600000       1.795000000000
        86    1        0.000000000000      22.202923790000       1.795000000000
        87    1       14.801949200000       7.400974600000       1.795000000000
        88    1       14.801949200000      22.202923790000       1.795000000000
        89    1        0.000000000000       7.400974600000       5.385000000000
        90    1        0.000000000000      22.202923790000       5.385000000000
        91    1       14.801949200000       7.400974600000       5.385000000000
        92    1       14.801949200000      22.202923790000       5.385000000000
        93    1        2.176757230000       8.707028940000       1.795000000000
        94    1        2.176757230000      23.508978130000       1.795000000000
        95    1       16.978706430000       8.707028940000       1.795000000000
        96    1       16.978706430000      23.508978130000       1.795000000000
        97    1        2.176757230000       8.707028940000       5.385000000000
        98    1        2.176757230000      23.508978130000       5.385000000000
        99    1       16.978706430000       8.707028940000       5.385000000000
       100    1       16.978706430000      23.508978130000       5.385000000000
       101    1        3.482811580000       6.530271700000       1.795000000000
       102    1        3.482811580000      21.332220900000       1.795000000000
       103    1       18.284760770000       6.530271700000       1.795000000000
       104    1       18.284760770000      21.332220900000       1.795000000000
       105    1        3.482811580000       6.530271700000       5.385000000000
       106    1        3.482811580000      21.332220900000       5.385000000000
       107    1       18.284760770000       6.530271700000       5.385000000000
       108    1       18.284760770000      21.332220900000       5.385000000000
       109    1        5.659568810000       7.836326040000       1.795000000000
       110    1        5.659568810000      22.638275240000       1.795000000000
       111    1       20.461518010000       7.836326040000       1.795000000000
       112    1       20.461518010000      22.638275240000       1.795000000000
       113    1        5.659568810000       7.836326040000       5.385000000000
       114    1        5.659568810000      22.638275240000       5.385000000000
       115    1       20.461518010000       7.836326040000       5.385000000000
       116    1       20.461518010000      22.638275240000       5.385000000000
       117    1        6.965623150000       5.659568810000       1.795000000000
       118    1        6.965623150000      20.461518010000       1.795000000000
       119    1       21.767572350000       5.659568810000       1.795000000000
       120    1       21.767572350000      20.461518010000       1.795000000000
       121    1        6.965623150000       5.659568810000       5.385000000000
       122    1        6.965623150000      20.461518010000       5.385000000000
       123    1       21.767572350000       5.659568810000       5.385000000000
       124    1       21.767572350000      20.461518010000       5.385000000000
       125    1        9.142380390000       6.965623150000       1.795000000000
       126    1        9.142380390000      21.767572350000       1.795000000000
       127    1       23.944329580000       6.965623150000       1.795000000000
       128    1       23.944329580000      21.767572350000       1.795000000000
       129    1        9.142380390000       6.965623150000       5.385000000000
       130    1        9.142380390000      21.767572350000       5.385000000000
       131    1       23.944329580000       6.965623150000       5.385000000000
       132    1       23.944329580000      21.767572350000       5.385000000000
       133    1       10.448434730000       4.788865920000       1.795000000000
       134    1       10.448434730000      19.590815110000       1.795000000000
       135    1       25.250383920000       4.788865920000       1.795000000000
       136    1       25.250383920000      19.590815110000       1.795000000000
       137    1       10.448434730000       4.788865920000       5.385000000000
       138    1       10.448434730000      19.590815110000       5.385000000000
       139    1       25.250383920000       4.788865920000       5.385000000000
       140    1       25.250383920000      19.590815110000       5.385000000000
       141    1       12.625191960000       6.094920260000       1.795000000000
       142    1       12.625191960000      20.896869450000       1.795000000000
       143    1       27.427141160000       6.094920260000       1.795000000000
       144    1       27.427141160000      20.896869450000       1.795000000000
       145    1       12.625191960000       6.094920260000       5.385000000000
       146    1       12.625191960000      20.896869450000       5.385000000000
       147    1       27.427141160000       6.094920260000       5.385000000000
       148    1       27.427141160000      20.896869450000       5.385000000000
       149    1       13.931246300000       3.918163020000       1.795000000000
       150    1       13.931246300000      18.720112220000       1.795000000000
       151    1       28.733195500000       3.918163020000       1.795000000000
       152    1       28.733195500000      18.720112220000       1.795000000000
       153    1       13.931246300000       3.918163020000       5.385000000000
       154    1       13.931246300000      18.720112220000       5.385000000000
       155    1       28.733195500000       3.918163020000       5.385000000000
       156    1       28.733195500000      18.720112220000       5.385000000000
       157    1        0.870702890000      10.883786170000       1.795000000000
       158    1        0.870702890000      25.685735370000       1.795000000000
       159    1       15.672652090000      10.883786170000       1.795000000000
       160    1       15.672652090000      25.685735370000       1.795000000000
       161    1        0.870702890000      10.883786170000       5.385000000000
       162    1        0.870702890000      25.685735370000       5.385000000000
       163    1       15.672652090000      10.883786170000       5.385000000000
       164    1       15.672652090000      25.685735370000       5.385000000000
       165    1        3.047460130000      12.189840510000       1.795000000000
       166    1        3.047460130000      26.991789710000       1.795000000000
       167    1       17.849409320000      12.189840510000       1.795000000000
       168    1       17.849409320000      26.991789710000       1.795000000000
       169    1        3.047460130000      12.189840510000       5.385000000000
       170    1        3.047460130000      26.991789710000       5.385000000000
       171    1       17.849409320000      12.189840510000       5.385000000000
       172    1       17.849409320000      26.991789710000       5.385000000000
       173    1        4.353514470000      10.013083280000       1.795000000000
       174    1        4.353514470000      24.815032480000       1.795000000000
       175    1       19.155463670000      10.013083280000       1.795000000000
       176    1       19.155463670000      24.815032480000       1.795000000000
       177    1        4.353514470000      10.013083280000       5.385000000000
       178    1        4.353514470000      24.815032480000       5.385000000000
       179    1       19.155463670000      10.013083280000       5.385000000000
       180    1       19.155463670000      24.815032480000       5.385000000000
       181    1        6.530271700000      11.319137620000       1.795000000000
       182    1        6.530271700000      26.121086820000       1.795000000000
       183    1       21.332220900000      11.319137620000       1.795000000000
       184    1       21.332220900000      26.121086820000       1.795000000000
       185    1        6.530271700000      11.319137620000       5.385000000000
       186    1        6.530271700000      26.121086820000       5.385000000000
       187    1       21.332220900000      11.319137620000       5.385000000000
       188    1       21.332220900000      26.121086820000       5.385000000000
       189    1        7.836326040000       9.142380390000       1.795000000000
       190    1        7.836326040000      23.944329580000       1.795000000000
       191    1       22.638275240000       9.142380390000       1.795000000000
       192    1       22.638275240000      23.944329580000       1.795000000000
       193    1        7.836326040000       9.142380390000       5.385000000000
       194    1        7.836326040000      23.944329580000       5.385000000000
       195    1       22.638275240000       9.142380390000       5.385000000000
       196    1       22.638275240000      23.944329580000       5.385000000000
       197    1       10.013083280000      10.448434730000       1.795000000000
       198    1       10.013083280000      25.250383920000       1.795000000000
       199    1       24.815032480000      10.448434730000       1.795000000000
       200    1       24.815032480000      25.250383920000       1.795000000000
       201    1       10.013083280000      10.448434730000       5.385000000000
       202    1       10.013083280000      25.250383920000       5.385000000000
       203    1       24.815032480000      10.448434730000       5.385000000000
       204    1       24.815032480000      25.250383920000       5.385000000000
       205    1       11.319137620000       8.271677490000       1.795000000000
       206    1       11.319137620000      23.073626690000       1.795000000000
       207    1       26.121086820000       8.271677490000       1.795000000000
       208    1       26.121086820000      23.073626690000       1.795000000000
       209    1       11.319137620000       8.271677490000       5.385000000000
       210    1       11.319137620000      23.073626690000       5.385000000000
       211    1       26.121086820000       8.271677490000       5.385000000000
       212    1       26.121086820000      23.073626690000       5.385000000000
       213    1       13.495894860000       9.577731830000       1.795000000000
       214    1       13.495894860000      24.379681030000       1.795000000000
       215    1       28.297844050000       9.577731830000       1.795000000000
       216    1       28.297844050000      24.379681030000       1.795000000000
       217    1       13.495894860000       9.577731830000       5.385000000000
       218    1       13.495894860000      24.379681030000       5.385000000000
       219    1       28.297844050000       9.577731830000       5.385000000000
       220    1       28.297844050000      24.379681030000       5.385000000000
       221    1        1.741405790000      14.366597750000       1.795000000000
       222    1        1.741405790000      29.168546940000       1.795000000000
       223    1       16.543354980000      14.366597750000       1.795000000000
       224    1       16.543354980000      29.168546940000       1.795000000000
       225    1        1.741405790000      14.366597750000       5.385000000000
       226    1        1.741405790000      29.168546940000       5.385000000000
       227    1       16.543354980000      14.366597750000       5.385000000000
       228    1       16.543354980000      29.168546940000       5.385000000000
       229    1        5.224217360000      13.495894860000       1.795000000000
       230    1        5.224217360000      28.297844050000       1.795000000000
       231    1       20.026166560000      13.495894860000       1.795000000000
       232    1       20.026166560000      28.297844050000       1.795000000000
       233    1        5.224217360000      13.495894860000       5.385000000000
       234    1        5.224217360000      28.297844050000       5.385000000000
       235    1       20.026166560000      13.495894860000       5.385000000000
       236    1       20.026166560000      28.297844050000       5.385000000000
       237    1        8.707028940000      12.625191960000       1.795000000000
       238    1        8.707028940000      27.427141160000       1.795000000000
       239    1       23.508978130000      12.625191960000       1.795000000000
       240    1       23.508978130000      27.427141160000       1.795000000000
       241    1        8.707028940000      12.625191960000       5.385000000000
       242    1        8.707028940000      27.427141160000       5.385000000000
       243    1       23.508978130000      12.625191960000       5.385000000000
       244    1       23.508978130000      27.427141160000       5.385000000000
       245    1       10.883786170000      13.931246300000       1.795000000000
       246    1       10.883786170000      28.733195500000       1.795000000000
       247    1       25.685735370000      13.931246300000       1.795000000000
       248    1       25.685735370000      28.733195500000       1.795000000000
       249    1       10.883786170000      13.931246300000       5.385000000000
       250    1       10.883786170000      28.733195500000       5.385000000000
       251    1       25.685735370000      13.931246300000       5.385000000000
       252    1       25.685735370000      28.733195500000       5.385000000000
       253    1       12.189840510000      11.754489070000       1.795000000000
       254    1       12.189840510000      26.556438260000       1.795000000000
       255    1       26.991789710000      11.754489070000       1.795000000000
       256    1       26.991789710000      26.556438260000       1.795000000000
       257    1       12.189840510000      11.754489070000       5.385000000000
       258    1       12.189840510000      26.556438260000       5.385000000000
       259    1       26.991789710000      11.754489070000       5.385000000000
       260    1       26.991789710000      26.556438260000       5.385000000000
       261    1       14.366597750000      13.060543410000       1.795000000000
       262    1       14.366597750000      27.862492600000       1.795000000000
       263    1       14.366597750000      13.060543410000       5.385000000000
       264    1       14.366597750000      27.862492600000       5.385000000000
       265    1        0.000000000000       0.000000000000       0.000000000000
       266    1        0.000000000000      14.801949200000       0.000000000000
       267    1       14.801949200000       0.000000000000       0.000000000000
       268    1       14.801949200000      14.801949200000       0.000000000000
       269    1        0.000000000000       0.000000000000       3.590000000000
       270    1        0.000000000000      14.801949200000       3.590000000000
       271    1       14.801949200000       0.000000000000       3.590000000000
       272    1       14.801949200000      14.801949200000       3.590000000000
       273    1        2.176757230000       1.306054340000       0.000000000000
       274    1        2.176757230000      16.108003540000       0.000000000000
       275    1       16.978706430000       1.306054340000       0.000000000000
       276    1       16.978706430000      16.108003540000       0.000000000000
       277    1        2.176757230000       1.306054340000       3.590000000000
       278    1        2.176757230000      16.108003540000       3.590000000000
       279    1       16.978706430000       1.306054340000       3.590000000000
       280    1       16.978706430000      16.108003540000       3.590000000000
       281    1        5.659568810000       0.435351450000       0.000000000000
       282    1        5.659568810000      15.237300640000       0.000000000000
       283    1       20.461518010000       0.435351450000       0.000000000000
       284    1       20.461518010000      15.237300640000       0.000000000000
       285    1        5.659568810000       0.435351450000       3.590000000000
       286    1        5.659568810000      15.237300640000       3.590000000000
       287    1       20.461518010000       0.435351450000       3.590000000000
       288    1       20.461518010000      15.237300640000       3.590000000000
       289    1        0.870702890000       3.482811580000       0.000000000000
       290    1        0.870702890000      18.284760770000       0.000000000000
       291    1       15.672652090000       3.482811580000       0.000000000000
       292    1       15.672652090000      18.284760770000       0.000000000000
       293    1        0.870702890000       3.482811580000       3.590000000000
       294    1        0.870702890000      18.284760770000       3.590000000000
       295    1       15.672652090000       3.482811580000       3.590000000000
       296    1       15.672652090000      18.284760770000       3.590000000000
       297    1        3.047460130000       4.788865920000       0.000000000000
       298    1        3.047460130000      19.590815110000       0.000000000000
       299    1       17.849409320000       4.788865920000       0.000000000000
       300    1       17.849409320000      19.590815110000       0.000000000000
       301    1        3.047460130000       4.788865920000       3.590000000000
       302    1        3.047460130000      19.590815110000       3.590000000000
       303    1       17.849409320000       4.788865920000       3.590000000000
       304    1       17.849409320000      19.590815110000       3.590000000000
       305    1        4.353514470000       2.612108680000       0.000000000000
       306    1        4.353514470000      17.414057880000       0.000000000000
       307    1       19.155463670000       2.612108680000       0.000000000000
       308    1       19.155463670000      17.414057880000       0.000000000000
       309    1        4.353514470000       2.612108680000       3.590000000000
       310    1        4.353514470000      17.414057880000       3.590000000000
       311    1       19.155463670000       2.612108680000       3.590000000000
       312    1       19.155463670000      17.414057880000       3.590000000000
       313    1        6.530271700000       3.918163020000       0.000000000000
       314    1        6.530271700000      18.720112220000       0.000000000000
       315    1       21.332220900000       3.918163020000       0.000000000000
       316    1       21.332220900000      18.720112220000       0.000000000000
       317    1        6.530271700000       3.918163020000       3.590000000000
       318    1        6.530271700000      18.720112220000       3.590000000000
       319    1       21.332220900000       3.918163020000       3.590000000000
       320    1       21.332220900000      18.720112220000       3.590000000000
       321    1        7.836326040000       1.741405790000       0.000000000000
       322    1        7.836326040000      16.543354980000       0.000000000000
       323    1       22.638275240000       1.741405790000       0.000000000000
       324    1       22.638275240000      16.543354980000       0.000000000000
       325    1        7.836326040000       1.741405790000       3.590000000000
       326    1        7.836326040000      16.543354980000       3.590000000000
       327    1       22.638275240000       1.741405790000       3.590000000000
       328    1       22.638275240000      16.543354980000       3.590000000000
       329    1       10.013083280000       3.047460130000       0.000000000000
       330    1       10.013083280000      17.849409320000       0.000000000000
       331    1       24.815032480000       3.047460130000       0.000000000000
       332    1       24.815032480000      17.849409320000       0.000000000000
       333    1       10.013083280000       3.047460130000       3.590000000000
       334    1       10.013083280000      17.849409320000       3.590000000000
       335    1       24.815032480000       3.047460130000       3.590000000000
       336    1       24.815032480000      17.849409320000       3.590000000000
       337    1       11.319137620000       0.870702890000       0.000000000000
       338    1       11.319137620000      15.672652090000       0.000000000000
       339    1       26.121086820000       0.870702890000       0.000000000000
       340    1       26.121086820000      15.672652090000       0.000000000000
       341    1       11.319137620000       0.870702890000       3.590000000000
       342    1       11.319137620000      15.672652090000       3.590000000000
       343    1       26.121086820000       0.870702890000       3.590000000000
       344    1       26.121086820000      15.672652090000       3.590000000000
       345    1       13.495894860000       2.176757230000       0.000000000000
       346    1       13.495894860000      16.978706430000       0.000000000000
       347    1       28.297844050000       2.176757230000       0.000000000000
       348    1       28.297844050000      16.978706430000       0.000000000000
       349    1       13.495894860000       2.176757230000       3.590000000000
       350    1       13.495894860000      16.978706430000       3.590000000000
       351    1       28.297844050000       2.176757230000       3.590000000000
       352    1       28.297844050000      16.978706430000       3.590000000000
       353    1       15.237300640000       9.142380390000       0.000000000000
       354    1       15.237300640000      23.944329580000       0.000000000000
       355    1       15.237300640000       9.142380390000       3.590000000000
       356    1       15.237300640000      23.944329580000       3.590000000000
       357    1        1.741405790000       6.965623150000       0.000000000000
       358    1        1.741405790000      21.767572350000       0.000000000000
       359    1       16.543354980000       6.965623150000       0.000000000000
       360    1       16.543354980000      21.767572350000       0.000000000000
       361    1        1.741405790000       6.965623150000       3.590000000000
       362    1        1.741405790000      21.767572350000       3.590000000000
       363    1       16.543354980000       6.965623150000       3.590000000000
       364    1       16.543354980000      21.767572350000       3.590000000000
       365    1        3.918163020000       8.271677490000       0.000000000000
       366    1        3.918163020000      23.073626690000       0.000000000000
       367    1       18.720112220000       8.271677490000       0.000000000000
       368    1       18.720112220000      23.073626690000       0.000000000000
       369    1        3.918163020000       8.271677490000       3.590000000000
       370    1        3.918163020000      23.073626690000       3.590000000000
       371    1       18.720112220000       8.271677490000       3.590000000000