LAMMPS (22 Dec 2022)
units 	metal
dimension 	3
boundary 	p p p
atom_style 	atomic
read_data 	bulk.lmp
Reading data file ...
  triclinic box = (0 0 0) to (15.337146 13.282358 12.522727) with tilt (7.668573 7.668573 4.4274527)
WARNING: Triclinic box skew is large. LAMMPS will run inefficiently. (../domain.cpp:220)
  1 by 1 by 1 MPI processor grid
  reading atoms ...
  215 atoms
  read_data CPU = 0.001 seconds
include 	potential.inp
#pair_style 	pace
#pair_coeff 	* * copper.yace Cu
pair_style hybrid/overlay pace table linear 6901
ACE version: 2022.6.27
Recursive evaluator is used
pair_coeff * * pace copper_gbs.yace Cu
Loading copper_gbs.yace
Total number of basis functions
	Cu: 6 (r=1) 23 (r>1)
Mapping LAMMPS atom type #1(Cu) -> ACE species type #0
pair_coeff 1 1 table copper_gb.table Cu_Cu
Reading pair table potential file copper_gb.table with DATE: none
WARNING: 1 of 6901 force values in table Cu_Cu are inconsistent with -dE/dr.
WARNING:  Should only be flagged at inflection points (../pair_table.cpp:466)
variable dumptime 	equal 100
variable thermotime 	equal 100
min_style 	cg

compute peratom all pe/atom
dump 1 	all custom ${dumptime} dump.out id type xsu ysu zsu fx fy fz vx vy vz
dump 1 	all custom 100 dump.out id type xsu ysu zsu fx fy fz vx vy vz
dump_modify 1 	sort id format line "%d %d %20.15g %20.15g %20.15g %20.15g %20.15g %20.15g %20.15g %20.15g %20.15g"

dump 2 all custom ${dumptime} dump_e_atom.out id type xsu ysu zsu c_peratom
dump 2 all custom 100 dump_e_atom.out id type xsu ysu zsu c_peratom
dump_modify 2 sort id format line "%d %d %20.15g %20.15g %20.15g %20.15g"

dump 3 all custom 100 dump3_*.out id type x y z
dump_modify 3 sort id

thermo_style 	custom step temp pe etotal pxx pxy pxz pyy pyz pzz vol
thermo_modify 	format float %20.15g
thermo 	${thermotime}
thermo 	100
#fix         br all box/relax x 10. y 10. z 10.
minimize 	0.0 0.0001 100000 10000000
Neighbor list info ...
  update: every = 1 steps, delay = 0 steps, check = yes
  max neighbors/atom: 2000, page size: 100000
  master list distance cutoff = 9
  ghost atom cutoff = 9
  binsize = 4.5, bins = 7 4 3
  2 neighbor lists, perpetual/occasional/extra = 2 0 0
  (1) pair pace, perpetual
      attributes: full, newton on, cut 7.5
      pair build: full/bin/atomonly
      stencil: full/bin/3d
      bin: standard
  (2) pair table, perpetual
      attributes: half, newton on
      pair build: half/bin/newton/tri
      stencil: half/bin/3d/tri
      bin: standard
Per MPI rank memory allocation (min/avg/max) = 9.353 | 9.353 | 9.353 Mbytes
   Step          Temp          PotEng         TotEng          Pxx            Pxy            Pxz            Pyy            Pyz            Pzz           Volume    
         0                     0    -2.49167741870357    -2.49167741870357     48378.6022690287 -4.13917801926627e-10 -8.56214554433863e-10     48378.6022689166 -6.18740873086569e-08     48378.6022689754     2551.04820225001
        13                     0    -3.36392367061273    -3.36392367061273     47498.2256575052 1.10395512301593e-10 1.69785613424525e-11     47498.2256573988 -5.78102320445865e-08     47498.2256574515     2551.04820225001
Loop time of 0.205606 on 1 procs for 13 steps with 215 atoms

99.3% CPU use with 1 MPI tasks x no OpenMP threads

Minimization stats:
  Stopping criterion = linesearch alpha is zero
  Energy initial, next-to-last, final = 
     -2.49167741870357  -3.36392367061273  -3.36392367061273
  Force two-norm initial, final = 5.4793992 0.00075332255
  Force max component initial, final = 1.3906285 0.00012121542
  Final line search alpha, max atom move = 0.015625 1.893991e-06
  Iterations, force evaluations = 13 37

MPI task timing breakdown:
Section |  min time  |  avg time  |  max time  |%varavg| %total
---------------------------------------------------------------
Pair    | 0.20244    | 0.20244    | 0.20244    |   0.0 | 98.46
Neigh   | 0          | 0          | 0          |   0.0 |  0.00
Comm    | 0.00043399 | 0.00043399 | 0.00043399 |   0.0 |  0.21
Output  | 0          | 0          | 0          |   0.0 |  0.00
Modify  | 0          | 0          | 0          |   0.0 |  0.00
Other   |            | 0.002733   |            |       |  1.33

Nlocal:            215 ave         215 max         215 min
Histogram: 1 0 0 0 0 0 0 0 0 0
Nghost:           3133 ave        3133 max        3133 min
Histogram: 1 0 0 0 0 0 0 0 0 0
Neighs:          26536 ave       26536 max       26536 min
Histogram: 1 0 0 0 0 0 0 0 0 0
FullNghs:        29960 ave       29960 max       29960 min
Histogram: 1 0 0 0 0 0 0 0 0 0

Total # of neighbors = 29960
Ave neighs/atom = 139.34884
Neighbor list builds = 0
Dangerous builds = 0
#unfix		br

Total wall time: 0:00:00
