LAMMPS (22 Dec 2022)
units 	metal
dimension 	3
boundary 	p p p
atom_style 	atomic
read_data 	bkCu.lmp
Reading data file ...
  triclinic box = (0 0 0) to (15.231078 13.190501 12.436123) with tilt (7.615539 7.615539 4.3968335)
WARNING: Triclinic box skew is large. LAMMPS will run inefficiently. (../domain.cpp:220)
  1 by 1 by 1 MPI processor grid
  reading atoms ...
  216 atoms
  read_data CPU = 0.002 seconds
include 	potential.inp
#pair_style 	pace
#pair_coeff 	* * copper.yace Cu
pair_style hybrid/overlay pace table linear 6901
ACE version: 2022.6.27
Recursive evaluator is used
pair_coeff * * pace copper_gbs.yace Cu
Loading copper_gbs.yace
Total number of basis functions
	Cu: 6 (r=1) 23 (r>1)
Mapping LAMMPS atom type #1(Cu) -> ACE species type #0
pair_coeff 1 1 table copper_gb.table Cu_Cu
Reading pair table potential file copper_gb.table with DATE: none
WARNING: 1 of 6901 force values in table Cu_Cu are inconsistent with -dE/dr.
WARNING:  Should only be flagged at inflection points (../pair_table.cpp:466)
variable dumptime 	equal 100
variable thermotime 	equal 100
min_style 	cg

compute peratom all pe/atom
dump 1 	all custom ${dumptime} dump.out id type xsu ysu zsu fx fy fz vx vy vz
dump 1 	all custom 100 dump.out id type xsu ysu zsu fx fy fz vx vy vz
dump_modify 1 	sort id format line "%d %d %20.15g %20.15g %20.15g %20.15g %20.15g %20.15g %20.15g %20.15g %20.15g"

dump 2 all custom ${dumptime} dump_e_atom.out id type xsu ysu zsu c_peratom
dump 2 all custom 100 dump_e_atom.out id type xsu ysu zsu c_peratom
dump_modify 2 sort id format line "%d %d %20.15g %20.15g %20.15g %20.15g"

dump 3 all custom 100 dump3_*.out id type x y z
dump_modify 3 sort id

thermo_style 	custom step temp pe etotal pxx pxy pxz pyy pyz pzz vol
thermo_modify 	format float %20.15g
thermo 	${thermotime}
thermo 	100
#fix         br all box/relax x 10. y 10. z 10.
minimize 	0.0 0.0001 100000 10000000
Neighbor list info ...
  update: every = 1 steps, delay = 0 steps, check = yes
  max neighbors/atom: 2000, page size: 100000
  master list distance cutoff = 9
  ghost atom cutoff = 9
  binsize = 4.5, bins = 7 4 3
  2 neighbor lists, perpetual/occasional/extra = 2 0 0
  (1) pair pace, perpetual
      attributes: full, newton on, cut 7.5
      pair build: full/bin/atomonly
      stencil: full/bin/3d
      bin: standard
  (2) pair table, perpetual
      attributes: half, newton on
      pair build: half/bin/newton/tri
      stencil: half/bin/3d/tri
      bin: standard
Per MPI rank memory allocation (min/avg/max) = 9.339 | 9.339 | 9.339 Mbytes
   Step          Temp          PotEng         TotEng          Pxx            Pxy            Pxz            Pyy            Pyz            Pzz           Volume    
         0                     0    -1.48361113041003    -1.48361113041003     109439.453185148 2.44053175849052e-10 -4.49913067292387e-10     109439.453185149 4.78554086990131e-10     109439.453185148     2498.48609626435
         1                     0    -1.48361113040946    -1.48361113040946     109439.453185149 2.82853928718869e-10 -2.85587693730424e-10     109439.453185149 6.47559780452119e-10     109439.453185148     2498.48609626435
Loop time of 0.0277654 on 1 procs for 1 steps with 216 atoms

99.7% CPU use with 1 MPI tasks x no OpenMP threads

Minimization stats:
  Stopping criterion = force tolerance
  Energy initial, next-to-last, final = 
     -1.48361113041003  -1.48361113041003  -1.48361113040946
  Force two-norm initial, final = 5.1407119e-13 2.7265152e-13
  Force max component initial, final = 1.5676349e-13 4.9293902e-14
  Final line search alpha, max atom move = 1 4.9293902e-14
  Iterations, force evaluations = 1 2

MPI task timing breakdown:
Section |  min time  |  avg time  |  max time  |%varavg| %total
---------------------------------------------------------------
Pair    | 0.02537    | 0.02537    | 0.02537    |   0.0 | 91.37
Neigh   | 0          | 0          | 0          |   0.0 |  0.00
Comm    | 4.6817e-05 | 4.6817e-05 | 4.6817e-05 |   0.0 |  0.17
Output  | 0          | 0          | 0          |   0.0 |  0.00
Modify  | 0          | 0          | 0          |   0.0 |  0.00
Other   |            | 0.002349   |            |       |  8.46

Nlocal:            216 ave         216 max         216 min
Histogram: 1 0 0 0 0 0 0 0 0 0
Nghost:           3159 ave        3159 max        3159 min
Histogram: 1 0 0 0 0 0 0 0 0 0
Neighs:          26784 ave       26784 max       26784 min
Histogram: 1 0 0 0 0 0 0 0 0 0
FullNghs:        30240 ave       30240 max       30240 min
Histogram: 1 0 0 0 0 0 0 0 0 0

Total # of neighbors = 30240
Ave neighs/atom = 140
Neighbor list builds = 0
Dangerous builds = 0
#unfix		br

Total wall time: 0:00:00
