ITEM: TIMESTEP
0
ITEM: NUMBER OF ATOMS
215
ITEM: BOX BOUNDS xy xz yz pp pp pp
0.0000000000000000e+00 3.0674292167872437e+01 7.6685730419681075e+00
0.0000000000000000e+00 1.7709810840322373e+01 7.6685730419681075e+00
0.0000000000000000e+00 1.2522727338722982e+01 4.4274527100805914e+00
ITEM: ATOMS id type element x y z fx fy fz c_energy
1 1 Cu 0 0 0 -4.94201e-07 -9.51091e-08 -2.69009e-07 -3.54
2 1 Cu 1.2781 0.737909 2.08712 -2.04836e-14 -3.16414e-15 7.77156e-15 -3.54
3 1 Cu 2.55619 1.47582 4.17424 7.97044e-06 4.60173e-06 1.30157e-05 -3.54
4 1 Cu 3.83429 2.21373 6.26136 -5.48173e-15 1.90218e-07 5.38018e-07 -3.54
5 1 Cu 5.11238 2.95164 8.34848 -1.60964e-05 8.97999e-08 2.53992e-07 -3.54
6 1 Cu 6.39048 3.68954 10.4356 -1.62519e-05 -3.95864e-15 -7.23033e-15 -3.54
7 1 Cu 1.2781 2.21373 0 -6.45317e-15 -1.249e-15 7.76115e-15 -3.54
8 1 Cu 2.55619 2.95164 2.08712 -3.91859e-05 8.79527e-05 6.21919e-05 -3.54
9 1 Cu 3.83429 3.68954 4.17424 -0.000578176 0.000791567 0.000295387 -3.54
10 1 Cu 5.11238 4.42745 6.26136 -0.000758941 0.000687202 1.00649e-06 -3.54
11 1 Cu 6.39048 5.16536 8.34848 -9.7769e-05 5.41297e-05 -2.85582e-05 -3.54
12 1 Cu 7.66857 5.90327 10.4356 -4.94201e-07 -2.85327e-07 -4.33681e-15 -3.54
13 1 Cu 2.55619 4.42745 0 7.97044e-06 1.38052e-05 -3.80945e-15 -3.54
14 1 Cu 19.1714 5.16536 2.08712 -0.000578176 0.000542349 0.000647834 -3.54
15 1 Cu 5.11238 5.90327 4.17424 -0.00182446 0.00105335 0.000744831 -3.54
16 1 Cu 6.39048 6.64118 6.26136 -0.000974605 0.000313471 4.68475e-07 -3.54
17 1 Cu 23.0057 7.37909 8.34848 1.14977e-14 9.20347e-06 -1.30157e-05 -3.54
18 1 Cu 24.2838 8.117 10.4356 9.57622e-05 1.00403e-05 -6.21919e-05 -3.54
19 1 Cu 3.83429 6.64118 0 -1.98036e-14 1.63689e-14 -8.25034e-15 -3.54
20 1 Cu 5.11238 7.37909 2.08712 -0.000758776 0.000229541 0.000647834 -3.54
21 1 Cu 21.7276 8.117 4.17424 -0.000974605 0.000104932 0.000295387 -3.54
22 1 Cu 7.66857 8.85491 6.26136 -3.4972e-14 -9.50628e-16 1.3628e-14 -3.54
23 1 Cu 8.94667 9.59281 8.34848 0.000974605 -0.000104932 -0.000295387 -3.54
24 1 Cu 10.2248 10.3307 10.4356 0.000758776 -0.000229541 -0.000647834 -3.54
25 1 Cu 5.11238 8.85491 0 -8.13517e-06 -1.33297e-05 -2.69009e-07 -3.54
26 1 Cu 21.7276 9.59281 2.08712 -9.57622e-05 -1.00403e-05 6.21919e-05 -3.54
27 1 Cu 23.0057 10.3307 4.17424 2.31759e-14 -9.20347e-06 1.30157e-05 -3.54
28 1 Cu 8.94667 11.0686 6.26136 0.000974605 -0.000313471 -4.68475e-07 -3.54
29 1 Cu 10.2248 11.8065 8.34848 0.00182446 -0.00105335 -0.000744831 -3.54
30 1 Cu 26.84 12.5444 10.4356 0.000578176 -0.000541778 -0.000647834 -3.54
31 1 Cu 6.39048 11.0686 0 -2.00677e-06 1.15861e-06 -1.63852e-06 -3.54
32 1 Cu 23.0057 11.8065 2.08712 4.63449e-14 -1.55431e-15 -6.99441e-15 -3.54
33 1 Cu 24.2838 12.5444 4.17424 9.57622e-05 -5.52883e-05 3.01968e-05 -3.54
34 1 Cu 10.2248 13.2824 6.26136 0.000758776 -0.000687297 -4.68475e-07 -3.54
35 1 Cu 11.5029 14.0203 8.34848 0.000578176 -0.00078925 -0.000293748 -3.54
36 1 Cu 12.781 14.7582 10.4356 3.10599e-05 -7.38781e-05 -6.21919e-05 -3.54
37 1 Cu 2.55619 0 0 4.94201e-07 -9.51091e-08 -2.69009e-07 -3.54
38 1 Cu 3.83429 0.737909 2.08712 5.66395e-05 -7.79488e-05 6.20887e-05 -3.54
39 1 Cu 5.11238 1.47582 4.17424 0.000396429 -0.000896499 0.000295387 -3.54
40 1 Cu 6.39048 2.21373 6.26136 0.000215766 -0.00100073 5.71671e-07 -3.54
41 1 Cu 7.66857 2.95164 8.34848 -4.94201e-07 -0.000110482 -2.99277e-05 -3.54
42 1 Cu 8.94667 3.68954 10.4356 -1.3347e-14 8.67362e-16 -6.87297e-15 -3.54
43 1 Cu 3.83429 2.21373 0 5.69057e-05 3.22839e-05 -9.44561e-05 -3.54
44 1 Cu 5.11238 2.95164 2.08712 -5.09315e-15 2.64372e-15 -1.02279e-14 -3.54
45 1 Cu 6.39048 3.68954 4.17424 -1.25863e-05 -7.26669e-06 1.02766e-05 -3.54
46 1 Cu 7.66857 4.42745 6.26136 1.53835e-14 1.59595e-15 7.91901e-15 -3.54
47 1 Cu 8.94667 5.16536 8.34848 9.57622e-05 5.52883e-05 -3.01968e-05 -3.54
48 1 Cu 10.2248 5.90327 10.4356 0.000249346 0.00014339 -0.000203187 -3.54
49 1 Cu 12.781 8.85491 12.5227 0.000396429 -2.03396e-05 -0.000943689 -3.54
50 1 Cu 6.39048 5.16536 2.08712 -1.25863e-05 7.26669e-06 -1.02766e-05 -3.54
51 1 Cu 7.66857 5.90327 4.17424 1.77844e-14 1.45334e-05 1.02766e-05 -3.54
52 1 Cu 8.94667 6.64118 6.26136 0.000974605 0.000313471 4.68475e-07 -3.54
53 1 Cu 10.2248 7.37909 8.34848 0.00499242 0.00141949 -0.00200746 -3.54
54 1 Cu 11.5029 8.117 10.4356 0.00372559 0.000687942 -0.00407629 -3.54
55 1 Cu 6.39048 6.64118 0 0.000215829 -0.000333148 -0.000943689 -3.54
56 1 Cu 7.66857 7.37909 2.08712 2.9178e-15 7.69523e-15 9.54792e-15 -3.54
57 1 Cu 8.94667 8.117 4.17424 0.000974605 0.000104932 0.000295387 -3.54
58 1 Cu 10.2248 8.85491 6.26136 0.0224589 -7.02216e-15 8.60423e-15 -3.54048
59 1 Cu 11.5029 9.59281 8.34848 0.00390272 -0.000751916 -0.00212408 -3.53661
60 1 Cu 12.781 10.3307 10.4356 0.0112294 -0.00648332 -0.0183376 -3.54048
61 1 Cu 15.3371 13.2824 12.5227 -4.86416e-15 -6.53287e-05 -9.41871e-05 -3.54
62 1 Cu 8.94667 9.59281 2.08712 9.57622e-05 -1.00403e-05 6.21919e-05 -3.54
63 1 Cu 10.2248 10.3307 4.17424 0.00499242 -0.00141949 0.00200746 -3.54
64 1 Cu 11.5029 11.0686 6.26136 0.00390272 -0.00225324 -8.87554e-07 -3.53661
65 1 Cu 12.781 11.8065 8.34848 0.00260254 -0.0030039 -0.00212408 -3.53661
66 1 Cu 14.0591 12.5444 10.4356 0.00126683 -0.00357031 -0.00407629 -3.54
67 1 Cu 16.6152 15.4961 12.5227 -1.08984e-14 2.08201e-14 4.24782e-14 -3.54
68 1 Cu 10.2248 11.8065 2.08712 0.000248852 -0.000143675 0.000203187 -3.54
69 1 Cu 11.5029 12.5444 4.17424 0.00372552 -0.00361381 0.00200746 -3.54
70 1 Cu 12.781 13.2824 6.26136 0.0112294 -0.0194499 8.68056e-15 -3.54048
71 1 Cu 14.0591 14.0203 8.34848 0.00126656 -0.00503292 -0.0020072 -3.54
72 1 Cu 15.3371 14.7582 10.4356 -4.94201e-07 -0.000287064 -0.000203187 -3.54
73 1 Cu 5.11238 0 0 2.40668e-05 -4.69153e-06 -1.32697e-05 -3.54
74 1 Cu 6.39048 0.737909 2.08712 0.0001806 -0.00077208 0.000647296 -3.54
75 1 Cu 7.66857 1.47582 4.17424 -6.38378e-15 -0.0021067 0.000744831 -3.54
76 1 Cu 16.6152 15.4961 6.26136 -0.000215829 -0.00100077 4.68475e-07 -3.54
77 1 Cu 10.2248 2.95164 8.34848 8.46464e-06 -4.50662e-06 -1.27467e-05 -3.54
78 1 Cu 19.1714 16.9719 10.4356 7.28282e-05 7.79123e-05 -6.21919e-05 -3.54
79 1 Cu 14.0591 6.64118 12.5227 0.0001806 0.00035117 -0.000945328 -3.54
80 1 Cu 7.66857 2.95164 2.08712 -5.56499e-15 -1.45334e-05 -1.02766e-05 -3.54
81 1 Cu 8.94667 3.68954 4.17424 1.25863e-05 -7.26669e-06 1.02766e-05 -3.54
82 1 Cu 10.2248 4.42745 6.26136 0.000758776 0.000687297 4.68475e-07 -3.54
83 1 Cu 11.5029 5.16536 8.34848 0.00372753 0.00361265 -0.00200583 -3.54
84 1 Cu 12.781 5.90327 10.4356 0.00246676 0.0028683 -0.00407629 -3.54
85 1 Cu 7.66857 4.42745 0 1.9095e-15 -8.79592e-15 -0.00223449 -3.54
86 1 Cu 8.94667 5.16536 2.08712 1.25863e-05 7.26669e-06 -1.02766e-05 -3.54
87 1 Cu 10.2248 5.90327 4.17424 0.00182446 0.00105335 0.000744831 -3.54
88 1 Cu 11.5029 6.64118 6.26136 0.00390272 0.00225324 8.87554e-07 -3.53661
89 1 Cu 12.781 7.37909 8.34848 -0.0361823 -0.0208904 0.0295431 -3.51472
90 1 Cu 14.0591 8.117 10.4356 0.00130018 0.00075009 -0.00424904 -3.53661
91 1 Cu 16.6152 11.0686 12.5227 -0.000215829 -0.000333148 -0.000943689 -3.54
92 1 Cu 10.2248 7.37909 2.08712 0.000758776 0.000229541 0.000647834 -3.54
93 1 Cu 11.5029 8.117 4.17424 0.00390272 0.000751916 0.00212408 -3.53661
94 1 Cu 12.781 8.85491 6.26136 0.166473 -1.28513e-14 2.68015e-15 -3.44983
95 1 Cu 14.0591 9.59281 8.34848 0.0832364 -0.0480566 -0.135924 -3.44983
96 1 Cu 15.3371 10.3307 10.4356 5.70377e-15 -0.00150132 -0.00424904 -3.53661
97 1 Cu 17.8933 13.2824 12.5227 7.97044e-06 -1.38052e-05 2.22808e-14 -3.54
98 1 Cu 11.5029 9.59281 2.08712 0.00372552 -0.000688052 0.00407629 -3.54
99 1 Cu 12.781 10.3307 4.17424 -0.0361825 0.02089 -0.0295429 -3.51472
100 1 Cu 14.0591 11.0686 6.26136 0.0832364 -0.14417 2.49106e-15 -3.44983
101 1 Cu 15.3371 11.8065 8.34848 3.05207e-14 0.0417799 0.0295429 -3.51472
102 1 Cu 16.6152 12.5444 10.4356 -0.00126689 -0.00357042 -0.00407629 -3.54
103 1 Cu 11.5029 11.0686 0 5.85831e-05 -3.15057e-05 9.25486e-05 -3.54
104 1 Cu 12.781 11.8065 2.08712 0.0024588 -0.00288228 0.00407575 -3.54
105 1 Cu 14.0591 12.5444 4.17424 0.00130018 -0.00375582 0.00212408 -3.53661
106 1 Cu 15.3371 13.2824 6.26136 2.51882e-14 -0.00450648 8.87554e-07 -3.53661
107 1 Cu 16.6152 14.0203 8.34848 -0.00126689 -0.0050333 -0.00200746 -3.54
108 1 Cu 17.8933 14.7582 10.4356 -3.86917e-05 -8.76673e-05 -6.21919e-05 -3.54
109 1 Cu 15.3371 4.42745 12.5227 -7.63177e-06 -4.78664e-06 -1.35387e-05 -3.54
110 1 Cu 8.94667 0.737909 2.08712 -0.0001806 -0.000771963 0.000647628 -3.54
111 1 Cu 17.8933 14.7582 4.17424 -0.000396429 -0.000896499 0.000295387 -3.54
112 1 Cu 11.5029 2.21373 6.26136 6.31949e-08 3.64856e-08 1.03197e-07 -3.54
113 1 Cu 12.781 2.95164 8.34848 0.000404555 0.00090119 -0.000282117 -3.54
114 1 Cu 14.0591 3.68954 10.4356 0.00493887 0.00077189 -0.000647834 -3.54048
115 1 Cu 8.94667 2.21373 0 -0.0001806 0.000352726 -0.000944227 -3.54
116 1 Cu 10.2248 2.95164 2.08712 1.79787e-14 -4.72192e-15 2.3731e-15 -3.54
117 1 Cu 11.5029 3.68954 4.17424 0.000578176 0.000791567 0.000295387 -3.54
118 1 Cu 12.781 4.42745 6.26136 0.0112296 0.0194499 5.38018e-07 -3.54048
119 1 Cu 14.0591 5.16536 8.34848 0.00130018 0.00374643 -0.00211081 -3.53661
120 1 Cu 15.3371 5.90327 10.4356 -7.63177e-06 0.0129523 -0.0183376 -3.54048
121 1 Cu 17.8933 8.85491 12.5227 -0.000396429 -2.03396e-05 -0.000943689 -3.54
122 1 Cu 11.5029 5.16536 2.08712 0.000578176 0.000542349 0.000647834 -3.54
123 1 Cu 12.781 5.90327 4.17424 0.00260254 0.0030039 0.00212408 -3.53661
124 1 Cu 14.0591 6.64118 6.26136 0.0832364 0.14417 1.03197e-07 -3.44983
125 1 Cu 15.3371 7.37909 8.34848 -1.64734e-07 0.0961127 -0.135924 -3.44983
126 1 Cu 16.6152 8.117 10.4356 -0.00130018 0.000750442 -0.00424904 -3.53661
127 1 Cu 19.1714 11.0686 12.5227 3.17212e-14 -3.91527e-15 -3.72619e-15 -3.54
128 1 Cu 12.781 7.37909 2.08712 0.0112294 0.00648332 0.0183376 -3.54048
129 1 Cu 14.0591 8.117 4.17424 0.0832364 0.0480566 0.135924 -3.44983
130 1 Cu 16.6152 9.59281 8.34848 -0.0832364 -0.0480566 -0.135924 -3.44983
131 1 Cu 17.8933 10.3307 10.4356 -0.0112294 -0.00648332 -0.0183376 -3.54048
132 1 Cu 20.4495 13.2824 12.5227 0.000396594 2.08151e-05 0.00094342 -3.54
133 1 Cu 14.0591 9.59281 2.08712 0.00130018 -0.000750588 0.00424894 -3.53661
134 1 Cu 15.3371 10.3307 4.17424 3.70342e-14 -0.0961131 0.135924 -3.44983
135 1 Cu 16.6152 11.0686 6.26136 -0.0832364 -0.14417 1.21604e-14 -3.44983
136 1 Cu 17.8933 11.8065 8.34848 -0.00260254 -0.0030039 -0.00212408 -3.53661
137 1 Cu 19.1714 12.5444 10.4356 -0.000578113 -0.000542239 -0.000647834 -3.54
138 1 Cu 14.0591 11.0686 0 0.0001806 -0.000344104 0.00093042 -3.54
139 1 Cu 15.3371 11.8065 2.08712 -1.64734e-07 -0.0129665 0.018337 -3.54048
140 1 Cu 16.6152 12.5444 4.17424 -0.00130018 -0.00375582 0.00212408 -3.53661
141 1 Cu 17.8933 13.2824 6.26136 -0.0112294 -0.0194499 1.14214e-14 -3.54048
142 1 Cu 19.1714 14.0203 8.34848 -0.000577847 -0.000791186 -0.000295118 -3.54
143 1 Cu 20.4495 14.7582 10.4356 8.12597e-06 1.40746e-05 -3.64223e-14 -3.54
144 1 Cu 25.5619 17.7098 12.5227 -8.3091e-06 -4.78664e-06 -1.35387e-05 -3.54
145 1 Cu 19.1714 14.0203 2.08712 -5.65763e-05 -7.81026e-05 6.16539e-05 -3.54
146 1 Cu 20.4495 14.7582 4.17424 -7.97044e-06 4.60173e-06 1.30157e-05 -3.54
147 1 Cu 14.0591 2.21373 6.26136 0.000215829 0.00100096 6.95437e-08 -3.54
148 1 Cu 15.3371 2.95164 8.34848 -7.63177e-06 0.00211149 -0.000731293 -3.54
149 1 Cu 24.2838 16.9719 10.4356 -0.0001806 0.00077189 -0.000647834 -3.54
150 1 Cu 19.1714 6.64118 12.5227 -5.65763e-05 3.03471e-05 -9.58256e-05 -3.54
151 1 Cu 12.781 2.95164 2.08712 3.91859e-05 8.79527e-05 6.21919e-05 -3.54
152 1 Cu 14.0591 3.68954 4.17424 0.00126689 0.0050333 0.00200746 -3.54
153 1 Cu 15.3371 4.42745 6.26136 -1.64734e-07 0.00450638 -3.49536e-07 -3.53661
154 1 Cu 16.6152 5.16536 8.34848 -0.00130018 0.0037535 -0.0021208 -3.53661
155 1 Cu 17.8933 5.90327 10.4356 -0.002451 0.00286801 -0.00407629 -3.54
156 1 Cu 20.4495 8.85491 12.5227 -7.97044e-06 1.38052e-05 7.43329e-15 -3.54
157 1 Cu 14.0591 5.16536 2.08712 0.00126689 0.00357042 0.00407629 -3.54
158 1 Cu 15.3371 5.90327 4.17424 -1.77046e-14 -0.0417799 -0.0295429 -3.51472
159 1 Cu 16.6152 6.64118 6.26136 -0.0832364 0.14417 7.07767e-16 -3.44983
160 1 Cu 17.8933 7.37909 8.34848 0.0361826 -0.0208904 0.0295431 -3.51472
161 1 Cu 19.1714 8.117 10.4356 -0.00372552 0.000687481 -0.00407629 -3.54
162 1 Cu 21.7276 11.0686 12.5227 0.000215829 0.000333148 0.000943689 -3.54
163 1 Cu 15.3371 7.37909 2.08712 -3.18703e-14 0.00150132 0.00424904 -3.53661
164 1 Cu 16.6152 8.117 4.17424 -0.0832364 0.0480566 0.135924 -3.44983
165 1 Cu 17.8933 8.85491 6.26136 -0.166473 4.19109e-14 1.03285e-14 -3.44983
166 1 Cu 19.1714 9.59281 8.34848 -0.00390272 -0.000751916 -0.00212408 -3.53661
167 1 Cu 20.4495 10.3307 10.4356 -0.000758776 -0.000229541 -0.000647834 -3.54
168 1 Cu 15.3371 8.85491 0 -1.64734e-07 4.75545e-07 0.00223422 -3.54
169 1 Cu 16.6152 9.59281 2.08712 -0.00130018 -0.000750661 0.00424904 -3.53661
170 1 Cu 17.8933 10.3307 4.17424 0.0361825 0.02089 -0.0295429 -3.51472
171 1 Cu 19.1714 11.0686 6.26136 -0.00390272 -0.00225324 -8.87554e-07 -3.53661
172 1 Cu 20.4495 11.8065 8.34848 -0.00182446 -0.00105335 -0.000744831 -3.54
173 1 Cu 21.7276 12.5444 10.4356 -1.25863e-05 -6.69603e-06 1.02766e-05 -3.54
174 1 Cu 16.6152 11.0686 0 -0.0001806 -0.00035117 0.000940412 -3.54
175 1 Cu 17.8933 11.8065 2.08712 -0.00245847 -0.00288228 0.00407575 -3.54
176 1 Cu 19.1714 12.5444 4.17424 -0.00372552 -0.00361381 0.00200746 -3.54
177 1 Cu 20.4495 13.2824 6.26136 -0.000758776 -0.000687297 -4.68475e-07 -3.54
178 1 Cu 21.7276 14.0203 8.34848 -1.25863e-05 9.5839e-06 -8.63813e-06 -3.54
179 1 Cu 23.0057 14.7582 10.4356 -7.63177e-06 2.88933e-05 1.02766e-05 -3.54
180 1 Cu 28.1181 17.7098 12.5227 -8.12597e-06 -4.69153e-06 -1.32697e-05 -3.54
181 1 Cu 21.7276 14.0203 2.08712 -6.31949e-08 -3.64856e-08 -1.03197e-07 -3.54
182 1 Cu 23.0057 14.7582 4.17424 3.48194e-14 0.000110577 3.01968e-05 -3.54
183 1 Cu 16.6152 2.21373 6.26136 -0.000215829 0.00100084 -2.62081e-07 -3.54
184 1 Cu 25.5619 16.234 8.34848 -0.000388797 0.000901285 -0.000281848 -3.54
185 1 Cu 26.84 16.9719 10.4356 -0.00481485 7.79123e-05 -6.21919e-05 -3.54048
186 1 Cu 21.7276 6.64118 12.5227 -3.29468e-07 -3.80436e-07 -2.69009e-07 -3.54
187 1 Cu 15.3371 2.95164 2.08712 5.08968e-15 0.00028735 0.000203187 -3.54
188 1 Cu 16.6152 3.68954 4.17424 -0.00126689 0.0050333 0.00200746 -3.54
189 1 Cu 17.8933 4.42745 6.26136 -0.0112293 0.0194499 5.38018e-07 -3.54048
190 1 Cu 19.1714 5.16536 8.34848 -0.00372552 0.00360443 -0.0019942 -3.54
191 1 Cu 20.4495 5.90327 10.4356 -0.000256978 0.0001296 -0.000203187 -3.54
192 1 Cu 23.0057 8.85491 12.5227 3.92464e-14 6.53287e-05 9.41871e-05 -3.54
193 1 Cu 16.6152 5.16536 2.08712 -0.00126689 0.00357042 0.00407629 -3.54
194 1 Cu 17.8933 5.90327 4.17424 -0.00260254 0.0030039 0.00212408 -3.53661
195 1 Cu 19.1714 6.64118 6.26136 -0.00390272 0.00225317 9.90751e-07 -3.53661
196 1 Cu 20.4495 7.37909 8.34848 -0.00499258 0.00141902 -0.0020072 -3.54
197 1 Cu 21.7276 8.117 10.4356 -9.58254e-05 9.93087e-06 -6.21919e-05 -3.54
198 1 Cu 16.6152 6.64118 0 -0.000215829 0.000333148 0.000943689 -3.54
199 1 Cu 17.8933 7.37909 2.08712 -0.0112294 0.00648332 0.0183376 -3.54048
200 1 Cu 19.1714 8.117 4.17424 -0.00390272 0.000751916 0.00212408 -3.53661
201 1 Cu 20.4495 8.85491 6.26136 -0.0224589 1.67678e-14 4.59355e-15 -3.54048
202 1 Cu 21.7276 9.59281 8.34848 -0.000974605 -0.000104932 -0.000295387 -3.54
203 1 Cu 23.0057 10.3307 10.4356 4.38677e-14 8.0734e-15 -3.21045e-14 -3.54
204 1 Cu 17.8933 8.85491 0 -0.000396264 2.08151e-05 0.00094342 -3.54
205 1 Cu 19.1714 9.59281 2.08712 -0.00372552 -0.000687979 0.00407619 -3.54
206 1 Cu 20.4495 10.3307 4.17424 -0.00499242 -0.00141949 0.00200746 -3.54
207 1 Cu 21.7276 11.0686 6.26136 -0.000974605 -0.000313471 -4.68475e-07 -3.54
208 1 Cu 23.0057 11.8065 8.34848 3.23977e-14 -1.45334e-05 -1.02766e-05 -3.54
209 1 Cu 24.2838 12.5444 10.4356 1.25863e-05 -7.04777e-06 1.02766e-05 -3.54
210 1 Cu 26.84 15.4961 12.5227 -5.65763e-05 -2.32813e-05 8.09174e-05 -3.54
211 1 Cu 20.4495 11.8065 2.08712 -0.000249017 -0.00014358 0.000202649 -3.54
212 1 Cu 21.7276 12.5444 4.17424 -9.57622e-05 -5.52883e-05 3.01968e-05 -3.54
213 1 Cu 23.0057 13.2824 6.26136 4.28962e-14 -1.70003e-16 -1.25872e-14 -3.54
214 1 Cu 24.2838 14.0203 8.34848 1.25863e-05 8.02756e-06 -9.73863e-06 -3.54
215 1 Cu 25.5619 14.7582 10.4356 7.63177e-06 1.43599e-05 -2.48829e-14 -3.54
ITEM: TIMESTEP
12
ITEM: NUMBER OF ATOMS
215
ITEM: BOX BOUNDS xy xz yz pp pp pp
0.0000000000000000e+00 3.0674292167872437e+01 7.6685730419681075e+00
0.0000000000000000e+00 1.7709810840322373e+01 7.6685730419681075e+00
0.0000000000000000e+00 1.2522727338722982e+01 4.4274527100805914e+00
ITEM: ATOMS id type element x y z fx fy fz c_energy
1 1 Cu -5.42834e-05 -5.51357e-05 -5.5081e-05 7.0599e-07 1.67232e-06 1.2238e-06 -3.54004
2 1 Cu 1.27819 0.737924 2.08721 -1.83322e-06 -4.53958e-06 -1.6918e-06 -3.54011
3 1 Cu 2.55635 1.47587 4.1744 -1.29547e-06 -5.21072e-06 3.17482e-06 -3.53898
4 1 Cu 3.83429 2.2137 6.26133 4.82107e-07 -1.89853e-06 1.41403e-06 -3.54145
5 1 Cu 5.11209 2.9516 8.34833 2.782e-06 -9.36819e-07 -6.72583e-07 -3.539
6 1 Cu 6.39008 3.68949 10.4354 8.00617e-06 1.22186e-06 4.21434e-06 -3.54015
7 1 Cu 1.27819 2.21382 -5.41653e-05 -3.18862e-06 -2.62977e-06 1.62313e-06 -3.54011
8 1 Cu 2.55658 2.9517 2.08714 -3.88542e-06 -4.39361e-06 5.10176e-07 -3.53952
9 1 Cu 3.83271 3.6912 4.17545 -6.02941e-06 -3.01563e-06 7.60451e-06 -3.54034
10 1 Cu 5.11009 4.42871 6.26146 -1.06884e-05 -2.4335e-06 7.23784e-07 -3.54034
11 1 Cu 6.39054 5.16531 8.34809 3.53703e-07 1.2577e-07 3.97474e-06 -3.5395
12 1 Cu 7.66852 5.90331 10.4354 1.32086e-07 -1.37625e-06 5.78252e-06 -3.54011
13 1 Cu 2.55634 4.42765 -1.67452e-05 -7.525e-07 -5.46352e-07 -3.71601e-06 -3.53898
14 1 Cu 19.1699 5.16706 2.08828 -5.43327e-06 3.46e-06 -4.65972e-06 -3.54033
15 1 Cu 5.10897 5.90523 4.17563 -7.32133e-06 2.07219e-07 6.24281e-08 -3.54023
16 1 Cu 6.38824 6.64251 6.26144 -7.54791e-06 8.11091e-06 1.58508e-06 -3.54033
17 1 Cu 23.0057 7.37924 8.34824 -1.29494e-06 -1.4375e-06 -1.10778e-06 -3.53897
18 1 Cu 24.2837 8.1173 10.4355 1.38247e-06 -1.32194e-06 -2.90848e-06 -3.53952
19 1 Cu 3.83427 6.64116 4.17073e-07 -1.31085e-06 -9.51805e-07 -3.30095e-06 -3.54145
20 1 Cu 5.11011 7.37958 2.08828 -1.49518e-05 -5.95812e-09 -1.91796e-06 -3.54034
21 1 Cu 21.7254 8.11751 4.17547 -1.19504e-05 4.39842e-06 7.99565e-06 -3.54034
22 1 Cu 7.66857 8.85491 6.26136 -4.29266e-06 -3.7658e-06 -2.84377e-06 -3.54145
23 1 Cu 8.94889 9.59227 8.34726 2.33879e-06 -6.10685e-06 -1.4004e-05 -3.54034
24 1 Cu 10.227 10.3302 10.4344 7.31751e-06 1.32152e-06 -3.60082e-06 -3.54034
25 1 Cu 5.1122 8.85467 -4.27234e-06 -1.1725e-06 -3.72551e-07 -6.90682e-07 -3.53898
26 1 Cu 21.7277 9.59243 2.08719 -4.35274e-06 3.15259e-06 -1.45616e-06 -3.53952
27 1 Cu 23.0057 10.3306 4.17448 -3.33504e-06 -3.99403e-06 -3.37983e-06 -3.53898
28 1 Cu 8.94889 11.0673 6.26128 3.47121e-06 -1.56206e-05 -5.95677e-06 -3.54034
29 1 Cu 10.2282 11.8045 8.34709 -1.39215e-07 -1.25121e-06 -4.3977e-06 -3.54023
30 1 Cu 26.8416 12.5427 10.4344 5.10887e-06 -6.56839e-06 3.52743e-07 -3.54034
31 1 Cu 6.39033 11.0684 1.34192e-05 3.7221e-06 5.43958e-06 -4.97422e-07 -3.54008
32 1 Cu 23.0057 11.8064 2.08727 -1.57784e-06 1.64167e-06 -4.91238e-06 -3.54011
33 1 Cu 24.2837 12.5445 4.1746 5.83973e-08 -6.66685e-06 -2.87491e-06 -3.53952
34 1 Cu 10.227 13.2811 6.26124 6.66797e-06 -1.82297e-06 3.32486e-07 -3.54034
35 1 Cu 11.5044 14.0186 8.34724 3.85068e-06 6.98373e-07 -6.64764e-06 -3.54034
36 1 Cu 12.7804 14.7582 10.4356 4.97553e-06 1.63132e-07 4.0888e-07 -3.53954
37 1 Cu 2.55644 -5.50915e-05 -5.50827e-05 -6.30802e-06 1.15049e-06 2.62627e-06 -3.54011
38 1 Cu 3.83459 0.738165 2.08713 -3.16641e-06 -3.79126e-06 1.02034e-06 -3.53953
39 1 Cu 5.11305 1.47364 4.17547 -1.62015e-06 -4.85699e-06 8.40866e-06 -3.54033
40 1 Cu 6.39041 2.21117 6.2615 -6.95619e-06 -6.53302e-06 -1.06777e-06 -3.54034
41 1 Cu 7.66852 2.95182 8.34815 8.09704e-07 -2.3405e-06 2.80876e-06 -3.53952
42 1 Cu 8.94677 3.68949 10.4354 -3.8759e-06 6.13131e-07 4.37467e-06 -3.54014
43 1 Cu 3.8346 2.21383 0.000205975 -2.23341e-06 6.29317e-08 -1.11704e-06 -3.53952
44 1 Cu 5.11258 2.95176 2.08721 2.79728e-06 1.27254e-06 -3.06866e-07 -3.54028
45 1 Cu 6.38994 3.68925 4.17469 2.78812e-06 4.6373e-06 -3.72574e-06 -3.54006
46 1 Cu 7.66856 4.42747 6.26111 -5.40561e-07 3.22407e-06 -9.68548e-07 -3.54028
47 1 Cu 8.94656 5.16531 8.34809 7.8638e-07 -2.84586e-07 3.68322e-06 -3.53951
48 1 Cu 10.2249 5.90326 10.4355 -7.04114e-07 2.6466e-06 8.11529e-07 -3.54043
49 1 Cu 12.7816 8.85533 12.5203 -5.41926e-07 5.08717e-06 -5.86247e-06 -3.54033
50 1 Cu 6.38994 5.16567 2.0867 8.72842e-07 -2.98681e-07 4.30864e-06 -3.54006
51 1 Cu 7.66857 5.90387 4.17467 -3.3401e-06 8.19239e-07 1.57918e-06 -3.54006
52 1 Cu 8.94889 6.64251 6.26143 1.89413e-06 7.15634e-06 2.07417e-06 -3.54034
53 1 Cu 10.224 7.37905 8.34851 -3.62752e-06 -3.03353e-06 1.61619e-06 -3.53862
54 1 Cu 11.5025 8.11712 10.4363 -4.27479e-06 -7.08279e-08 2.54728e-06 -3.53864
55 1 Cu 6.39042 6.64042 -0.00246383 -6.37405e-06 -6.11611e-07 -4.03831e-06 -3.54034
56 1 Cu 7.66857 7.37884 2.08721 -2.82182e-06 4.54974e-06 3.36532e-06 -3.54029
57 1 Cu 8.94889 8.11751 4.17547 2.87407e-06 4.26749e-06 7.34864e-06 -3.54034
58 1 Cu 10.2368 8.85491 6.26136 3.74217e-06 -2.82614e-06 -3.79218e-06 -3.54201
59 1 Cu 11.5103 9.58995 8.34494 1.67829e-06 1.93777e-06 -4.59487e-06 -3.53797
60 1 Cu 12.787 10.3272 10.4257 2.54161e-07 1.21085e-06 5.05758e-08 -3.542
61 1 Cu 15.3371 13.2821 12.523 -1.02532e-06 3.55569e-06 1.08011e-06 -3.53952
62 1 Cu 8.94656 9.59242 2.0872 -6.37788e-07 2.81519e-06 -1.87753e-06 -3.53952
63 1 Cu 10.224 10.3307 4.1742 -1.8534e-06 -3.54189e-06 -3.50177e-06 -3.53863
64 1 Cu 11.5103 11.0643 6.25986 7.22288e-07 -3.89083e-06 7.75768e-07 -3.53797
65 1 Cu 12.7871 11.8015 8.34494 -3.28607e-06 -1.58901e-06 3.32517e-07 -3.53796
66 1 Cu 14.0586 12.5448 10.4363 -2.68404e-06 9.17523e-07 5.77084e-06 -3.53864
67 1 Cu 16.6153 15.4959 12.5227 -2.54328e-06 5.71324e-06 -1.39823e-06 -3.5401
68 1 Cu 10.2249 11.8065 2.0872 1.10399e-06 -9.58711e-08 -1.51352e-06 -3.54042
69 1 Cu 11.5025 12.5451 4.17418 -2.55184e-06 1.04775e-06 -1.74471e-06 -3.53863
70 1 Cu 12.787 13.2719 6.26136 -8.74667e-07 1.77524e-06 -5.65748e-07 -3.542
71 1 Cu 14.0586 14.021 8.34857 -9.46979e-07 4.04226e-06 3.65873e-07 -3.53863
72 1 Cu 15.3371 14.7581 10.4356 1.24092e-06 -3.42247e-08 -1.14558e-06 -3.54043
73 1 Cu 5.11282 -4.89656e-05 -7.95941e-05 -3.31662e-06 1.06279e-06 3.85527e-07 -3.539
74 1 Cu 6.39118 0.735728 2.08832 5.5538e-06 -6.74547e-06 -4.08759e-06 -3.54034
75 1 Cu 7.66856 1.47192 4.1757 9.37857e-07 3.68308e-06 -3.63165e-06 -3.54023
76 1 Cu 16.6153 15.4935 6.26151 6.93218e-06 -3.81698e-06 -2.37751e-06 -3.54034
77 1 Cu 10.225 2.95161 8.3483 -9.30927e-07 -1.13804e-06 -1.19271e-06 -3.53898
78 1 Cu 19.172 16.9716 10.4355 -5.58174e-06 1.56856e-06 6.05196e-07 -3.53956
79 1 Cu 14.0598 6.64158 12.5203 4.24649e-06 -5.32905e-06 -7.30534e-06 -3.54034
80 1 Cu 7.66856 2.95106 2.08674 8.71156e-07 7.08969e-06 1.67489e-06 -3.54006
81 1 Cu 8.94719 3.68925 4.1747 -3.37359e-06 8.94993e-06 -2.3507e-06 -3.54006
82 1 Cu 10.227 4.42873 6.26145 9.33182e-06 5.62882e-07 1.96669e-06 -3.54033
83 1 Cu 11.5025 5.16469 8.34851 -4.94005e-06 -3.54575e-06 2.6132e-06 -3.5386
84 1 Cu 12.7811 5.90272 10.4362 -5.44467e-06 -1.62355e-06 5.09699e-06 -3.53865
85 1 Cu 7.66856 4.42751 -0.00414621 1.31106e-06 9.65494e-08 2.14902e-06 -3.54023
86 1 Cu 8.94719 5.16567 2.0867 -2.23062e-06 4.49252e-06 7.16523e-06 -3.54006
87 1 Cu 10.2282 5.90523 4.17563 4.21082e-06 5.54955e-06 3.36881e-06 -3.54023
88 1 Cu 11.5103 6.64547 6.26285 6.01352e-06 -1.43989e-07 -2.18639e-06 -3.53797
89 1 Cu 12.775 7.37561 8.35339 2.86478e-06 1.74245e-06 -4.48914e-07 -3.51676
90 1 Cu 14.0603 8.11776 10.427 3.76907e-06 -2.81742e-07 2.87872e-06 -3.53797
91 1 Cu 16.6153 11.0679 12.5203 5.50278e-06 1.33114e-06 2.17095e-07 -3.54034
92 1 Cu 10.227 7.37958 2.08828 1.09865e-05 4.72376e-06 1.83169e-06 -3.54034
93 1 Cu 11.5103 8.11983 4.17778 7.43981e-06 -1.86778e-06 1.18553e-06 -3.53797
94 1 Cu 12.8112 8.8549 6.26137 2.72838e-06 1.20168e-06 7.8045e-07 -3.44935
95 1 Cu 14.0742 9.58411 8.32383 -1.95927e-06 3.88661e-06 8.6302e-06 -3.44935
96 1 Cu 15.3371 10.3294 10.427 4.23156e-07 -3.83904e-06 8.0408e-06 -3.53797
97 1 Cu 17.8935 13.2821 12.5227 7.98149e-07 1.51419e-06 1.27385e-06 -3.53897
98 1 Cu 11.5024 9.59262 2.08647 2.2202e-06 5.11299e-07 -4.64019e-06 -3.53863
99 1 Cu 12.775 10.3342 4.16934 6.61638e-06 4.23786e-07 8.61519e-07 -3.51676
100 1 Cu 14.0742 11.0425 6.26137 -8.54615e-07 9.70911e-06 2.66785e-06 -3.44935
101 1 Cu 15.3371 11.8135 8.3534 2.57347e-07 -2.88639e-07 2.88877e-06 -3.51676
102 1 Cu 16.6156 12.5448 10.4363 2.49331e-06 1.01202e-06 7.77997e-06 -3.53863
103 1 Cu 11.5032 11.0685 -0.000234865 -3.89628e-06 2.1502e-06 1.05184e-06 -3.5395
104 1 Cu 12.7809 11.807 2.08645 -1.53203e-06 4.0867e-06 -3.30721e-06 -3.53863
105 1 Cu 14.0603 12.5366 4.1778 3.18135e-06 5.10509e-06 6.19547e-07 -3.53797
106 1 Cu 15.3371 13.2738 6.26291 -3.95612e-08 4.35592e-06 -3.34948e-06 -3.53797
107 1 Cu 16.6156 14.021 8.34858 1.26135e-06 3.75584e-06 5.38624e-07 -3.53863
108 1 Cu 17.8938 14.7581 10.4356 -4.02795e-06 -5.22754e-07 1.57069e-07 -3.53952
109 1 Cu 15.3372 4.42755 12.5229 -1.60236e-06 -2.93786e-06 -1.36977e-06 -3.54143
110 1 Cu 8.94597 0.735769 2.08841 -4.72042e-06 -7.30229e-06 -6.32093e-06 -3.54032
111 1 Cu 17.8927 14.756 4.17554 1.39271e-06 3.36342e-07 4.71515e-06 -3.54034
112 1 Cu 11.5029 2.21376 6.26143 -3.316e-07 1.56508e-07 -2.06227e-06 -3.54146
113 1 Cu 12.7818 2.95387 8.34734 -4.27876e-06 3.06025e-06 -7.37013e-06 -3.54036
114 1 Cu 14.0607 3.69175 10.4344 -1.72378e-06 6.8511e-06 1.98963e-06 -3.54081
115 1 Cu 8.94597 2.2142 -0.00238095 -3.50883e-06 -7.41185e-06 -9.2085e-06 -3.54033
116 1 Cu 10.2246 2.95179 2.08726 -1.53501e-06 5.04736e-06 -1.23316e-06 -3.54029
117 1 Cu 11.5044 3.69122 4.17549 5.76579e-06 3.33303e-06 6.41566e-06 -3.54034
118 1 Cu 12.787 4.43791 6.26138 1.45556e-06 -6.78336e-07 -1.26855e-06 -3.54201
119 1 Cu 14.0604 5.1732 8.34495 1.09055e-06 -7.44438e-07 -1.90114e-06 -3.53797
120 1 Cu 15.3372 5.9104 10.4258 -1.01461e-06 -2.16334e-06 -1.53912e-06 -3.54199
121 1 Cu 17.8927 8.85539 12.5203 6.72212e-07 5.45451e-06 -1.65998e-06 -3.54034
122 1 Cu 11.5044 5.16708 2.08829 4.76026e-06 8.73275e-06 -2.8707e-07 -3.54034
123 1 Cu 12.7871 5.90828 4.17779 3.03176e-06 -2.38351e-07 1.11e-06 -3.53797
124 1 Cu 14.0742 6.66733 6.26137 4.03867e-07 -6.80694e-06 -7.09859e-07 -3.44935
125 1 Cu 15.3372 7.39656 8.32383 1.10527e-06 -3.42851e-06 5.90484e-06 -3.44936
126 1 Cu 16.614 8.11786 10.427 -2.79907e-06 -2.84467e-06 4.25541e-06 -3.53795
127 1 Cu 19.1715 11.0687 12.5227 1.05313e-06 6.29397e-07 2.25909e-06 -3.54145
128 1 Cu 12.787 7.38258 2.09698 5.25641e-06 3.09592e-07 -2.00499e-06 -3.54201
129 1 Cu 14.0742 8.12571 4.1989 3.73356e-06 -2.10447e-06 -7.0364e-06 -3.44935
130 1 Cu 16.6001 9.58415 8.32383 3.7159e-06 4.01367e-06 1.14777e-05 -3.44935
131 1 Cu 17.8873 10.3273 10.4257 1.94215e-07 -1.36437e-07 6.38401e-06 -3.54201
132 1 Cu 20.4502 13.2819 12.5252 -5.60639e-07 -6.83266e-06 6.87858e-06 -3.54034
133 1 Cu 14.0603 9.59209 2.0957 5.17932e-06 -2.43322e-06 -6.38439e-07 -3.53797
134 1 Cu 15.3372 10.3133 4.19891 2.639e-06 6.52311e-06 -2.124e-06 -3.44935
135 1 Cu 16.6001 11.0425 6.26138 2.51373e-06 1.14265e-05 4.59408e-06 -3.44935
136 1 Cu 17.8872 11.8016 8.34496 2.25224e-06 -7.54591e-07 3.88135e-06 -3.53797
137 1 Cu 19.1699 12.5428 10.4345 -5.05552e-06 -9.48014e-06 3.76102e-06 -3.54034
138 1 Cu 14.0598 11.0683 0.00245639 2.44502e-06 4.58872e-06 6.25103e-06 -3.54034
139 1 Cu 15.3372 11.7996 2.09701 1.12654e-06 2.19623e-06 -7.4669e-07 -3.54201
140 1 Cu 16.614 12.5366 4.17783 -1.66602e-06 7.12622e-06 -9.15382e-07 -3.53797
141 1 Cu 17.8873 13.2719 6.26141 7.12145e-07 5.24791e-06 -1.35188e-06 -3.542
142 1 Cu 19.1699 14.0187 8.3473 -4.0607e-06 -1.11396e-06 -8.90046e-06 -3.54034
143 1 Cu 20.4499 14.7581 10.4355 -1.06657e-06 -2.52799e-08 -1.47137e-06 -3.5403
144 1 Cu 25.5615 17.7099 12.5229 2.39896e-06 -2.79391e-06 -2.5182e-06 -3.53896
145 1 Cu 19.1712 14.0206 2.08722 2.95798e-06 -1.02269e-06 -2.59301e-06 -3.53952
146 1 Cu 20.4494 14.7583 4.17448 1.58761e-07 -2.68103e-07 -6.00333e-07 -3.53898
147 1 Cu 14.059 2.21629 6.26125 -4.48454e-06 4.73452e-06 3.06982e-07 -3.54033
148 1 Cu 15.3372 2.95545 8.34697 -1.78549e-06 3.97619e-06 1.45413e-06 -3.54021
149 1 Cu 24.2831 16.9741 10.4344 -2.80507e-06 7.2793e-06 2.09816e-06 -3.54025
150 1 Cu 19.1711 6.64138 12.523 1.64662e-06 -2.19481e-06 -2.08163e-06 -3.53952
151 1 Cu 12.7806 2.95174 2.08719 9.64015e-07 -1.35943e-06 -5.66748e-07 -3.53952
152 1 Cu 14.0587 3.68883 4.17419 -7.50672e-07 -8.04754e-06 -1.72348e-06 -3.53863
153 1 Cu 15.3372 4.43601 6.25984 -1.85099e-07 -1.41277e-06 2.95836e-06 -3.53797
154 1 Cu 16.614 5.17319 8.34497 -2.19579e-06 -4.62309e-07 -1.88482e-06 -3.53802
155 1 Cu 17.8933 5.90297 10.4363 3.68634e-06 -5.76099e-06 2.72284e-06 -3.53861
156 1 Cu 20.4494 8.85516 12.5227 -1.09264e-06 -4.83878e-07 -4.23708e-07 -3.53898
157 1 Cu 14.0587 5.16509 2.08646 1.07909e-06 -7.03561e-06 -6.58674e-06 -3.53863
158 1 Cu 15.3372 5.89633 4.16934 1.98088e-06 -2.66998e-06 -1.80825e-06 -3.51676
159 1 Cu 16.6001 6.66732 6.26137 3.6281e-06 -6.76688e-06 -9.85402e-07 -3.44935
160 1 Cu 17.8993 7.37565 8.3534 -1.61695e-06 1.08699e-06 -1.14457e-07 -3.51676
161 1 Cu 19.1719 8.11723 10.4363 4.15698e-06 -1.83626e-06 5.9364e-06 -3.53863
162 1 Cu 21.7276 11.0694 12.5252 -5.29567e-06 2.66283e-07 3.19921e-06 -3.54034
163 1 Cu 15.3372 7.38053 2.0957 1.58323e-06 -8.79381e-07 -3.99716e-06 -3.53797
164 1 Cu 16.6001 8.12571 4.1989 2.70491e-06 -2.61068e-06 -6.9875e-06 -3.44935
165 1 Cu 17.8631 8.85491 6.26137 -2.17122e-06 3.63082e-06 3.43795e-06 -3.44935
166 1 Cu 19.164 9.58999 8.34494 -2.32986e-06 3.86183e-06 1.99091e-06 -3.53797
167 1 Cu 20.4473 10.3302 10.4344 -9.03215e-06 -3.13374e-07 2.3283e-06 -3.54033
168 1 Cu 15.3372 8.85488 0.00415197 3.40045e-07 -1.68836e-07 3.09841e-07 -3.54023
169 1 Cu 16.614 9.5921 2.09569 -1.2095e-06 -2.36749e-06 -4.97742e-08 -3.53797