216
Lattice="0.0 10.769978352079763 10.769978352079763 10.769978352079763 0.0 10.769978352079763 10.769978352079763 10.769978352079763 0.0" Properties=species:S:1:pos:R:3:forces:R:3:energies:R:1 config_type=bulk_Cu energy=-1.5198618184121457 free_energy=-1.5198618184121457 pbc="T T T"
Cu       0.00000000       0.00000000       0.00000000       0.00000000       0.00000000       0.00000000      -0.00703640
Cu       1.79499639       1.79499639       0.00000000      -0.00000000       0.00000000       0.00000000      -0.00703640
Cu       3.58999278       3.58999278       0.00000000       0.00000000       0.00000000      -0.00000000      -0.00703640
Cu       5.38498918       5.38498918       0.00000000      -0.00000000       0.00000000       0.00000000      -0.00703640
Cu       7.17998557       7.17998557       0.00000000      -0.00000000       0.00000000       0.00000000      -0.00703640
Cu       8.97498196       8.97498196       0.00000000       0.00000000       0.00000000      -0.00000000      -0.00703640
Cu       1.79499639       0.00000000       1.79499639       0.00000000       0.00000000       0.00000000      -0.00703640
Cu       3.58999278       1.79499639       1.79499639      -0.00000000       0.00000000      -0.00000000      -0.00703640
Cu       5.38498918       3.58999278       1.79499639      -0.00000000      -0.00000000       0.00000000      -0.00703640
Cu       7.17998557       5.38498918       1.79499639      -0.00000000       0.00000000       0.00000000      -0.00703640
Cu       8.97498196       7.17998557       1.79499639       0.00000000       0.00000000       0.00000000      -0.00703640
Cu      10.76997835       8.97498196       1.79499639      -0.00000000       0.00000000       0.00000000      -0.00703640
Cu       3.58999278       0.00000000       3.58999278       0.00000000       0.00000000      -0.00000000      -0.00703640
Cu       5.38498918       1.79499639       3.58999278      -0.00000000       0.00000000       0.00000000      -0.00703640
Cu       7.17998557       3.58999278       3.58999278      -0.00000000      -0.00000000       0.00000000      -0.00703640
Cu       8.97498196       5.38498918       3.58999278       0.00000000       0.00000000       0.00000000      -0.00703640
Cu      10.76997835       7.17998557       3.58999278      -0.00000000       0.00000000       0.00000000      -0.00703640
Cu      12.56497474       8.97498196       3.58999278       0.00000000       0.00000000       0.00000000      -0.00703640
Cu       5.38498918       0.00000000       5.38498918       0.00000000       0.00000000      -0.00000000      -0.00703640
Cu       7.17998557       1.79499639       5.38498918      -0.00000000       0.00000000       0.00000000      -0.00703640
Cu       8.97498196       3.58999278       5.38498918      -0.00000000       0.00000000       0.00000000      -0.00703640
Cu      10.76997835       5.38498918       5.38498918      -0.00000000      -0.00000000      -0.00000000      -0.00703640
Cu      12.56497474       7.17998557       5.38498918      -0.00000000      -0.00000000       0.00000000      -0.00703640
Cu      14.35997114       8.97498196       5.38498918       0.00000000       0.00000000      -0.00000000      -0.00703640
Cu       7.17998557       0.00000000       7.17998557       0.00000000      -0.00000000      -0.00000000      -0.00703640
Cu       8.97498196       1.79499639       7.17998557       0.00000000       0.00000000      -0.00000000      -0.00703640
Cu      10.76997835       3.58999278       7.17998557      -0.00000000       0.00000000       0.00000000      -0.00703640
Cu      12.56497474       5.38498918       7.17998557      -0.00000000      -0.00000000      -0.00000000      -0.00703640
Cu      14.35997114       7.17998557       7.17998557       0.00000000      -0.00000000      -0.00000000      -0.00703640
Cu      16.15496753       8.97498196       7.17998557      -0.00000000      -0.00000000      -0.00000000      -0.00703640
Cu       8.97498196       0.00000000       8.97498196       0.00000000       0.00000000      -0.00000000      -0.00703640
Cu      10.76997835       1.79499639       8.97498196       0.00000000       0.00000000      -0.00000000      -0.00703640
Cu      12.56497474       3.58999278       8.97498196       0.00000000       0.00000000       0.00000000      -0.00703640
Cu      14.35997114       5.38498918       8.97498196      -0.00000000      -0.00000000      -0.00000000      -0.00703640
Cu      16.15496753       7.17998557       8.97498196      -0.00000000      -0.00000000       0.00000000      -0.00703640
Cu      17.94996392       8.97498196       8.97498196      -0.00000000       0.00000000       0.00000000      -0.00703640
Cu       0.00000000       1.79499639       1.79499639       0.00000000      -0.00000000       0.00000000      -0.00703640
Cu       1.79499639       3.58999278       1.79499639       0.00000000      -0.00000000       0.00000000      -0.00703640
Cu       3.58999278       5.38498918       1.79499639       0.00000000      -0.00000000       0.00000000      -0.00703640
Cu       5.38498918       7.17998557       1.79499639       0.00000000      -0.00000000       0.00000000      -0.00703640
Cu       7.17998557       8.97498196       1.79499639      -0.00000000      -0.00000000       0.00000000      -0.00703640
Cu       8.97498196      10.76997835       1.79499639       0.00000000       0.00000000       0.00000000      -0.00703640
Cu       1.79499639       1.79499639       3.58999278       0.00000000      -0.00000000      -0.00000000      -0.00703640
Cu       3.58999278       3.58999278       3.58999278       0.00000000      -0.00000000      -0.00000000      -0.00703640
Cu       5.38498918       5.38498918       3.58999278       0.00000000      -0.00000000      -0.00000000      -0.00703640
Cu       7.17998557       7.17998557       3.58999278      -0.00000000      -0.00000000       0.00000000      -0.00703640
Cu       8.97498196       8.97498196       3.58999278       0.00000000       0.00000000       0.00000000      -0.00703640
Cu      10.76997835      10.76997835       3.58999278       0.00000000       0.00000000      -0.00000000      -0.00703640
Cu       3.58999278       1.79499639       5.38498918       0.00000000      -0.00000000      -0.00000000      -0.00703640
Cu       5.38498918       3.58999278       5.38498918      -0.00000000      -0.00000000      -0.00000000      -0.00703640
Cu       7.17998557       5.38498918       5.38498918      -0.00000000      -0.00000000      -0.00000000      -0.00703640
Cu       8.97498196       7.17998557       5.38498918       0.00000000      -0.00000000       0.00000000      -0.00703640
Cu      10.76997835       8.97498196       5.38498918       0.00000000       0.00000000      -0.00000000      -0.00703640
Cu      12.56497474      10.76997835       5.38498918      -0.00000000       0.00000000      -0.00000000      -0.00703640
Cu       5.38498918       1.79499639       7.17998557       0.00000000       0.00000000      -0.00000000      -0.00703640
Cu       7.17998557       3.58999278       7.17998557      -0.00000000       0.00000000      -0.00000000      -0.00703640
Cu       8.97498196       5.38498918       7.17998557       0.00000000      -0.00000000      -0.00000000      -0.00703640
Cu      10.76997835       7.17998557       7.17998557       0.00000000      -0.00000000      -0.00000000      -0.00703640
Cu      12.56497474       8.97498196       7.17998557      -0.00000000       0.00000000      -0.00000000      -0.00703640
Cu      14.35997114      10.76997835       7.17998557       0.00000000      -0.00000000      -0.00000000      -0.00703640
Cu       7.17998557       1.79499639       8.97498196      -0.00000000       0.00000000       0.00000000      -0.00703640
Cu       8.97498196       3.58999278       8.97498196       0.00000000      -0.00000000      -0.00000000      -0.00703640
Cu      10.76997835       5.38498918       8.97498196      -0.00000000      -0.00000000       0.00000000      -0.00703640
Cu      12.56497474       7.17998557       8.97498196      -0.00000000       0.00000000      -0.00000000      -0.00703640
Cu      14.35997114       8.97498196       8.97498196       0.00000000       0.00000000       0.00000000      -0.00703640
Cu      16.15496753      10.76997835       8.97498196      -0.00000000      -0.00000000       0.00000000      -0.00703640
Cu       8.97498196       1.79499639      10.76997835       0.00000000      -0.00000000      -0.00000000      -0.00703640
Cu      10.76997835       3.58999278      10.76997835       0.00000000       0.00000000       0.00000000      -0.00703640
Cu      12.56497474       5.38498918      10.76997835       0.00000000      -0.00000000       0.00000000      -0.00703640
Cu      14.35997114       7.17998557      10.76997835       0.00000000      -0.00000000      -0.00000000      -0.00703640
Cu      16.15496753       8.97498196      10.76997835       0.00000000       0.00000000       0.00000000      -0.00703640
Cu      17.94996392      10.76997835      10.76997835      -0.00000000      -0.00000000       0.00000000      -0.00703640
Cu       0.00000000       3.58999278       3.58999278       0.00000000       0.00000000       0.00000000      -0.00703640
Cu       1.79499639       5.38498918       3.58999278       0.00000000       0.00000000       0.00000000      -0.00703640
Cu       3.58999278       7.17998557       3.58999278      -0.00000000      -0.00000000      -0.00000000      -0.00703640
Cu       5.38498918       8.97498196       3.58999278       0.00000000       0.00000000       0.00000000      -0.00703640
Cu       7.17998557      10.76997835       3.58999278      -0.00000000      -0.00000000       0.00000000      -0.00703640
Cu       8.97498196      12.56497474       3.58999278       0.00000000      -0.00000000      -0.00000000      -0.00703640
Cu       1.79499639       3.58999278       5.38498918       0.00000000      -0.00000000      -0.00000000      -0.00703640
Cu       3.58999278       5.38498918       5.38498918       0.00000000      -0.00000000      -0.00000000      -0.00703640
Cu       5.38498918       7.17998557       5.38498918      -0.00000000      -0.00000000      -0.00000000      -0.00703640
Cu       7.17998557       8.97498196       5.38498918      -0.00000000       0.00000000      -0.00000000      -0.00703640
Cu       8.97498196      10.76997835       5.38498918       0.00000000      -0.00000000       0.00000000      -0.00703640
Cu      10.76997835      12.56497474       5.38498918       0.00000000      -0.00000000      -0.00000000      -0.00703640
Cu       3.58999278       3.58999278       7.17998557       0.00000000       0.00000000      -0.00000000      -0.00703640
Cu       5.38498918       5.38498918       7.17998557      -0.00000000      -0.00000000      -0.00000000      -0.00703640
Cu       7.17998557       7.17998557       7.17998557       0.00000000      -0.00000000      -0.00000000      -0.00703640
Cu       8.97498196       8.97498196       7.17998557       0.00000000       0.00000000      -0.00000000      -0.00703640
Cu      10.76997835      10.76997835       7.17998557       0.00000000      -0.00000000      -0.00000000      -0.00703640
Cu      12.56497474      12.56497474       7.17998557      -0.00000000       0.00000000      -0.00000000      -0.00703640
Cu       5.38498918       3.58999278       8.97498196       0.00000000       0.00000000       0.00000000      -0.00703640
Cu       7.17998557       5.38498918       8.97498196      -0.00000000      -0.00000000      -0.00000000      -0.00703640
Cu       8.97498196       7.17998557       8.97498196       0.00000000      -0.00000000       0.00000000      -0.00703640
Cu      10.76997835       8.97498196       8.97498196      -0.00000000       0.00000000       0.00000000      -0.00703640
Cu      12.56497474      10.76997835       8.97498196      -0.00000000      -0.00000000       0.00000000      -0.00703640
Cu      14.35997114      12.56497474       8.97498196       0.00000000      -0.00000000       0.00000000      -0.00703640
Cu       7.17998557       3.58999278      10.76997835      -0.00000000       0.00000000      -0.00000000      -0.00703640
Cu       8.97498196       5.38498918      10.76997835       0.00000000      -0.00000000      -0.00000000      -0.00703640
Cu      10.76997835       7.17998557      10.76997835      -0.00000000      -0.00000000      -0.00000000      -0.00703640
Cu      12.56497474       8.97498196      10.76997835      -0.00000000       0.00000000      -0.00000000      -0.00703640
Cu      14.35997114      10.76997835      10.76997835      -0.00000000      -0.00000000       0.00000000      -0.00703640
Cu      16.15496753      12.56497474      10.76997835      -0.00000000      -0.00000000       0.00000000      -0.00703640
Cu       8.97498196       3.58999278      12.56497474       0.00000000      -0.00000000       0.00000000      -0.00703640
Cu      10.76997835       5.38498918      12.56497474      -0.00000000      -0.00000000      -0.00000000      -0.00703640
Cu      12.56497474       7.17998557      12.56497474      -0.00000000      -0.00000000      -0.00000000      -0.00703640
Cu      14.35997114       8.97498196      12.56497474       0.00000000       0.00000000      -0.00000000      -0.00703640
Cu      16.15496753      10.76997835      12.56497474      -0.00000000      -0.00000000      -0.00000000      -0.00703640
Cu      17.94996392      12.56497474      12.56497474      -0.00000000      -0.00000000      -0.00000000      -0.00703640
Cu       0.00000000       5.38498918       5.38498918       0.00000000      -0.00000000      -0.00000000      -0.00703640
Cu       1.79499639       7.17998557       5.38498918       0.00000000       0.00000000       0.00000000      -0.00703640
Cu       3.58999278       8.97498196       5.38498918       0.00000000       0.00000000       0.00000000      -0.00703640
Cu       5.38498918      10.76997835       5.38498918      -0.00000000      -0.00000000       0.00000000      -0.00703640
Cu       7.17998557      12.56497474       5.38498918      -0.00000000      -0.00000000       0.00000000      -0.00703640
Cu       8.97498196      14.35997114       5.38498918      -0.00000000       0.00000000      -0.00000000      -0.00703640
Cu       1.79499639       5.38498918       7.17998557       0.00000000       0.00000000       0.00000000      -0.00703640
Cu       3.58999278       7.17998557       7.17998557       0.00000000      -0.00000000      -0.00000000      -0.00703640
Cu       5.38498918       8.97498196       7.17998557       0.00000000       0.00000000      -0.00000000      -0.00703640
Cu       7.17998557      10.76997835       7.17998557      -0.00000000      -0.00000000      -0.00000000      -0.00703640
Cu       8.97498196      12.56497474       7.17998557       0.00000000      -0.00000000       0.00000000      -0.00703640
Cu      10.76997835      14.35997114       7.17998557      -0.00000000      -0.00000000      -0.00000000      -0.00703640
Cu       3.58999278       5.38498918       8.97498196       0.00000000      -0.00000000      -0.00000000      -0.00703640
Cu       5.38498918       7.17998557       8.97498196      -0.00000000      -0.00000000      -0.00000000      -0.00703640
Cu       7.17998557       8.97498196       8.97498196      -0.00000000       0.00000000       0.00000000      -0.00703640
Cu       8.97498196      10.76997835       8.97498196       0.00000000      -0.00000000       0.00000000      -0.00703640
Cu      10.76997835      12.56497474       8.97498196      -0.00000000      -0.00000000       0.00000000      -0.00703640
Cu      12.56497474      14.35997114       8.97498196      -0.00000000       0.00000000       0.00000000      -0.00703640
Cu       5.38498918       5.38498918      10.76997835      -0.00000000      -0.00000000      -0.00000000      -0.00703640
Cu       7.17998557       7.17998557      10.76997835      -0.00000000      -0.00000000      -0.00000000      -0.00703640
Cu       8.97498196       8.97498196      10.76997835       0.00000000       0.00000000      -0.00000000      -0.00703640
Cu      10.76997835      10.76997835      10.76997835      -0.00000000       0.00000000      -0.00000000      -0.00703640
Cu      12.56497474      12.56497474      10.76997835      -0.00000000      -0.00000000       0.00000000      -0.00703640
Cu      14.35997114      14.35997114      10.76997835       0.00000000       0.00000000      -0.00000000      -0.00703640
Cu       7.17998557       5.38498918      12.56497474      -0.00000000      -0.00000000      -0.00000000      -0.00703640
Cu       8.97498196       7.17998557      12.56497474       0.00000000      -0.00000000      -0.00000000      -0.00703640
Cu      10.76997835       8.97498196      12.56497474      -0.00000000       0.00000000      -0.00000000      -0.00703640
Cu      12.56497474      10.76997835      12.56497474      -0.00000000       0.00000000      -0.00000000      -0.00703640
Cu      14.35997114      12.56497474      12.56497474      -0.00000000       0.00000000      -0.00000000      -0.00703640
Cu      16.15496753      14.35997114      12.56497474      -0.00000000       0.00000000      -0.00000000      -0.00703640
Cu       8.97498196       5.38498918      14.35997114       0.00000000      -0.00000000       0.00000000      -0.00703640
Cu      10.76997835       7.17998557      14.35997114      -0.00000000      -0.00000000      -0.00000000      -0.00703640
Cu      12.56497474       8.97498196      14.35997114      -0.00000000       0.00000000       0.00000000      -0.00703640
Cu      14.35997114      10.76997835      14.35997114       0.00000000      -0.00000000       0.00000000      -0.00703640
Cu      16.15496753      12.56497474      14.35997114      -0.00000000      -0.00000000       0.00000000      -0.00703640
Cu      17.94996392      14.35997114      14.35997114       0.00000000       0.00000000       0.00000000      -0.00703640
Cu       0.00000000       7.17998557       7.17998557       0.00000000      -0.00000000      -0.00000000      -0.00703640
Cu       1.79499639       8.97498196       7.17998557       0.00000000      -0.00000000      -0.00000000      -0.00703640
Cu       3.58999278      10.76997835       7.17998557       0.00000000      -0.00000000      -0.00000000      -0.00703640
Cu       5.38498918      12.56497474       7.17998557       0.00000000      -0.00000000      -0.00000000      -0.00703640
Cu       7.17998557      14.35997114       7.17998557       0.00000000      -0.00000000      -0.00000000      -0.00703640
Cu       8.97498196      16.15496753       7.17998557      -0.00000000      -0.00000000      -0.00000000      -0.00703640
Cu       1.79499639       7.17998557       8.97498196       0.00000000      -0.00000000      -0.00000000      -0.00703640
Cu       3.58999278       8.97498196       8.97498196      -0.00000000       0.00000000       0.00000000      -0.00703640
Cu       5.38498918      10.76997835       8.97498196      -0.00000000      -0.00000000       0.00000000      -0.00703640
Cu       7.17998557      12.56497474       8.97498196      -0.00000000      -0.00000000      -0.00000000      -0.00703640
Cu       8.97498196      14.35997114       8.97498196       0.00000000      -0.00000000       0.00000000      -0.00703640
Cu      10.76997835      16.15496753       8.97498196       0.00000000      -0.00000000       0.00000000      -0.00703640
Cu       3.58999278       7.17998557      10.76997835       0.00000000      -0.00000000      -0.00000000      -0.00703640
Cu       5.38498918       8.97498196      10.76997835      -0.00000000       0.00000000      -0.00000000      -0.00703640
Cu       7.17998557      10.76997835      10.76997835       0.00000000      -0.00000000      -0.00000000      -0.00703640
Cu       8.97498196      12.56497474      10.76997835       0.00000000      -0.00000000      -0.00000000      -0.00703640
Cu      10.76997835      14.35997114      10.76997835      -0.00000000      -0.00000000      -0.00000000      -0.00703640
Cu      12.56497474      16.15496753      10.76997835      -0.00000000      -0.00000000      -0.00000000      -0.00703640
Cu       5.38498918       7.17998557      12.56497474      -0.00000000      -0.00000000      -0.00000000      -0.00703640
Cu       7.17998557       8.97498196      12.56497474       0.00000000      -0.00000000      -0.00000000      -0.00703640
Cu       8.97498196      10.76997835      12.56497474       0.00000000      -0.00000000      -0.00000000      -0.00703640
Cu      10.76997835      12.56497474      12.56497474       0.00000000      -0.00000000      -0.00000000      -0.00703640
Cu      12.56497474      14.35997114      12.56497474       0.00000000      -0.00000000      -0.00000000      -0.00703640
Cu      14.35997114      16.15496753      12.56497474       0.00000000      -0.00000000      -0.00000000      -0.00703640
Cu       7.17998557       7.17998557      14.35997114       0.00000000       0.00000000      -0.00000000      -0.00703640
Cu       8.97498196       8.97498196      14.35997114       0.00000000       0.00000000       0.00000000      -0.00703640
Cu      10.76997835      10.76997835      14.35997114       0.00000000       0.00000000       0.00000000      -0.00703640
Cu      12.56497474      12.56497474      14.35997114      -0.00000000      -0.00000000      -0.00000000      -0.00703640
Cu      14.35997114      14.35997114      14.35997114      -0.00000000       0.00000000      -0.00000000      -0.00703640
Cu      16.15496753      16.15496753      14.35997114      -0.00000000      -0.00000000      -0.00000000      -0.00703640
Cu       8.97498196       7.17998557      16.15496753       0.00000000      -0.00000000      -0.00000000      -0.00703640
Cu      10.76997835       8.97498196      16.15496753      -0.00000000       0.00000000       0.00000000      -0.00703640
Cu      12.56497474      10.76997835      16.15496753      -0.00000000      -0.00000000      -0.00000000      -0.00703640
Cu      14.35997114      12.56497474      16.15496753       0.00000000      -0.00000000      -0.00000000      -0.00703640
Cu      16.15496753      14.35997114      16.15496753      -0.00000000      -0.00000000      -0.00000000      -0.00703640
Cu      17.94996392      16.15496753      16.15496753       0.00000000      -0.00000000      -0.00000000      -0.00703640
Cu       0.00000000       8.97498196       8.97498196       0.00000000       0.00000000       0.00000000      -0.00703640
Cu       1.79499639      10.76997835       8.97498196       0.00000000       0.00000000       0.00000000      -0.00703640
Cu       3.58999278      12.56497474       8.97498196      -0.00000000       0.00000000       0.00000000      -0.00703640
Cu       5.38498918      14.35997114       8.97498196      -0.00000000       0.00000000       0.00000000      -0.00703640
Cu       7.17998557      16.15496753       8.97498196      -0.00000000      -0.00000000       0.00000000      -0.00703640
Cu       8.97498196      17.94996392       8.97498196       0.00000000      -0.00000000       0.00000000      -0.00703640
Cu       1.79499639       8.97498196      10.76997835      -0.00000000       0.00000000       0.00000000      -0.00703640
Cu       3.58999278      10.76997835      10.76997835      -0.00000000       0.00000000       0.00000000      -0.00703640
Cu       5.38498918      12.56497474      10.76997835      -0.00000000       0.00000000       0.00000000      -0.00703640
Cu       7.17998557      14.35997114      10.76997835      -0.00000000      -0.00000000      -0.00000000      -0.00703640
Cu       8.97498196      16.15496753      10.76997835       0.00000000      -0.00000000      -0.00000000      -0.00703640
Cu      10.76997835      17.94996392      10.76997835       0.00000000       0.00000000      -0.00000000      -0.00703640
Cu       3.58999278       8.97498196      12.56497474      -0.00000000       0.00000000      -0.00000000      -0.00703640
Cu       5.38498918      10.76997835      12.56497474      -0.00000000       0.00000000      -0.00000000      -0.00703640
Cu       7.17998557      12.56497474      12.56497474      -0.00000000       0.00000000      -0.00000000      -0.00703640
Cu       8.97498196      14.35997114      12.56497474       0.00000000       0.00000000      -0.00000000      -0.00703640
Cu      10.76997835      16.15496753      12.56497474      -0.00000000      -0.00000000       0.00000000      -0.00703640
Cu      12.56497474      17.94996392      12.56497474      -0.00000000       0.00000000      -0.00000000      -0.00703640
Cu       5.38498918       8.97498196      14.35997114      -0.00000000      -0.00000000       0.00000000      -0.00703640
Cu       7.17998557      10.76997835      14.35997114      -0.00000000      -0.00000000       0.00000000      -0.00703640
Cu       8.97498196      12.56497474      14.35997114       0.00000000      -0.00000000       0.00000000      -0.00703640
Cu      10.76997835      14.35997114      14.35997114      -0.00000000       0.00000000       0.00000000      -0.00703640
Cu      12.56497474      16.15496753      14.35997114      -0.00000000      -0.00000000       0.00000000      -0.00703640
Cu      14.35997114      17.94996392      14.35997114       0.00000000       0.00000000       0.00000000      -0.00703640
Cu       7.17998557       8.97498196      16.15496753      -0.00000000       0.00000000      -0.00000000      -0.00703640
Cu       8.97498196      10.76997835      16.15496753       0.00000000       0.00000000      -0.00000000      -0.00703640
Cu      10.76997835      12.56497474      16.15496753      -0.00000000       0.00000000      -0.00000000      -0.00703640
Cu      12.56497474      14.35997114      16.15496753      -0.00000000       0.00000000      -0.00000000      -0.00703640
Cu      14.35997114      16.15496753      16.15496753      -0.00000000      -0.00000000      -0.00000000      -0.00703640
Cu      16.15496753      17.94996392      16.15496753      -0.00000000       0.00000000      -0.00000000      -0.00703640
Cu       8.97498196       8.97498196      17.94996392      -0.00000000      -0.00000000       0.00000000      -0.00703640
Cu      10.76997835      10.76997835      17.94996392      -0.00000000       0.00000000       0.00000000      -0.00703640
Cu      12.56497474      12.56497474      17.94996392      -0.00000000      -0.00000000       0.00000000      -0.00703640
Cu      14.35997114      14.35997114      17.94996392       0.00000000       0.00000000       0.00000000      -0.00703640
Cu      16.15496753      16.15496753      17.94996392      -0.00000000      -0.00000000       0.00000000      -0.00703640
Cu      17.94996392      17.94996392      17.94996392       0.00000000       0.00000000       0.00000000      -0.00703640
