215
Lattice="0.0 10.769978352079763 10.769978352079763 10.769978352079763 0.0 10.769978352079763 10.769978352079763 10.769978352079763 0.0" Properties=species:S:1:pos:R:3:forces:R:3:energies:R:1 config_type=bulk_vac energy=-0.28772583451888956 free_energy=-0.28772583451888956 pbc="T T T"
Cu       0.00000000       0.00000000      -0.00000000      -0.00000000      -0.00000000      -0.00000000      -0.00701617
Cu       1.79499759       1.79499759       0.00000000       0.00003443       0.00003443      -0.00000000      -0.00710759
Cu       3.58998458       3.58998458       0.00000000      -0.00009880      -0.00009880      -0.00000000      -0.00673790
Cu       5.38498918       5.38498918       0.00000000      -0.00000000       0.00000000       0.00000000      -0.00737208
Cu       7.17999377       7.17999377       0.00000000       0.00009880       0.00009880      -0.00000000      -0.00673790
Cu       8.97498077       8.97498077      -0.00000000      -0.00003443      -0.00003443       0.00000000      -0.00710759
Cu       1.79499759       0.00000000       1.79499759       0.00003443      -0.00000000       0.00003443      -0.00710759
Cu       3.58997337       1.79500623       1.79500623      -0.00132494       0.00073327       0.00073327      -0.00695050
Cu       5.38509057       3.58997326       1.79494092       0.00390590      -0.00167133      -0.00110747      -0.00706174
Cu       7.18000510       5.38488779       1.79494092       0.00167133      -0.00390590      -0.00110747      -0.00706174
Cu       8.97497212       7.18000498       1.79500623      -0.00073327       0.00132494       0.00073327      -0.00695050
Cu      10.76997835       8.97498077       1.79499759      -0.00000000      -0.00003443       0.00003443      -0.00710759
Cu       3.58998458       0.00000000       3.58998458      -0.00009880      -0.00000000      -0.00009880      -0.00673790
Cu       5.38509057       1.79494092       3.58997326       0.00390590      -0.00110747      -0.00167133      -0.00706174
Cu       7.18002515       3.58995321       3.58995321       0.00321480      -0.00321480      -0.00321480      -0.00703147
Cu       8.97503743       5.38488779       3.58997326       0.00110747      -0.00390590      -0.00167133      -0.00706174
Cu      10.76997835       7.17999377       3.58998458      -0.00000000       0.00009880      -0.00009880      -0.00673790
Cu      12.56498459       8.97497212       3.58997337       0.00073327      -0.00073327      -0.00132494      -0.00695050
Cu       5.38498918       0.00000000       5.38498918      -0.00000000      -0.00000000       0.00000000      -0.00737208
Cu       7.18000510       1.79494092       5.38488779       0.00167133      -0.00110747      -0.00390590      -0.00706174
Cu       8.97503743       3.58997326       5.38488779       0.00110747      -0.00167133      -0.00390590      -0.00706174
Cu      10.76997835       5.38498918       5.38498918       0.00000000      -0.00000000      -0.00000000      -0.00737208
Cu      12.56491927       7.18000510       5.38509057      -0.00110747       0.00167133       0.00390590      -0.00706174
Cu      14.35995161       8.97503743       5.38509057      -0.00167133       0.00110747       0.00390590      -0.00706174
Cu       7.17999377       0.00000000       7.17999377       0.00009880      -0.00000000       0.00009880      -0.00673790
Cu       8.97497212       1.79500623       7.18000498      -0.00073327       0.00073327       0.00132494      -0.00695050
Cu      10.76997835       3.58998458       7.17999377      -0.00000000      -0.00009880       0.00009880      -0.00673790
Cu      12.56491927       5.38509057       7.18000510      -0.00110747       0.00390590       0.00167133      -0.00706174
Cu      14.35993156       7.18002515       7.18002515      -0.00321480       0.00321480       0.00321480      -0.00703147
Cu      16.15486614       8.97503743       7.18000510      -0.00390590       0.00110747       0.00167133      -0.00706174
Cu       8.97498077      -0.00000000       8.97498077      -0.00003443       0.00000000      -0.00003443      -0.00710759
Cu      10.76997835       1.79499759       8.97498077      -0.00000000       0.00003443      -0.00003443      -0.00710759
Cu      12.56498459       3.58997337       8.97497212       0.00073327      -0.00132494      -0.00073327      -0.00695050
Cu      14.35995161       5.38509057       8.97503743      -0.00167133       0.00390590       0.00110747      -0.00706174
Cu      16.15486614       7.18000510       8.97503743      -0.00390590       0.00167133       0.00110747      -0.00706174
Cu      17.94998334       8.97497212       8.97497212       0.00132494      -0.00073327      -0.00073327      -0.00695050
Cu       0.00000000       1.79499759       1.79499759       0.00000000       0.00003443       0.00003443      -0.00710759
Cu       1.79500623       3.58997337       1.79500623       0.00073327      -0.00132494       0.00073327      -0.00695050
Cu       3.58997326       5.38509057       1.79494092      -0.00167133       0.00390590      -0.00110747      -0.00706174
Cu       5.38488779       7.18000510       1.79494092      -0.00390590       0.00167133      -0.00110747      -0.00706174
Cu       7.18000498       8.97497212       1.79500623       0.00132494      -0.00073327       0.00073327      -0.00695050
Cu       8.97498077      10.76997835       1.79499759      -0.00003443      -0.00000000       0.00003443      -0.00710759
Cu       1.79500623       1.79500623       3.58997337       0.00073327       0.00073327      -0.00132494      -0.00695050
Cu       3.58999218       3.58999218       3.58999218       0.00003785       0.00003785       0.00003785      -0.00703815
Cu       5.38498918       5.38498918       3.58999133       0.00000000      -0.00000000      -0.00026534      -0.00697361
Cu       7.17998617       7.17998617       3.58999218      -0.00003785      -0.00003785       0.00003785      -0.00703815
Cu       8.97497212       8.97497212       3.58997337      -0.00073327      -0.00073327      -0.00132494      -0.00695050
Cu      10.76997835      10.76997835       3.59008655       0.00000000      -0.00000000       0.00040684      -0.00736066
Cu       3.58997326       1.79494092       5.38509057      -0.00167133      -0.00110747       0.00390590      -0.00706174
Cu       5.38498918       3.58999133       5.38498918       0.00000000      -0.00026534       0.00000000      -0.00697361
Cu       7.17998702       5.38498918       5.38498918       0.00026534      -0.00000000       0.00000000      -0.00697361
Cu       8.97503743       7.18000510       5.38509057       0.00110747       0.00167133       0.00390590      -0.00706174
Cu      10.76997835       8.97427757       5.38426164      -0.00000000      -0.00248567      -0.00259758      -0.00630662
Cu      12.56567913      10.76997835       5.38426164       0.00248567      -0.00000000      -0.00259758      -0.00630662
Cu       5.38488779       1.79494092       7.18000510      -0.00390590      -0.00110747       0.00167133      -0.00706174
Cu       7.17998617       3.58999218       7.17998617      -0.00003785       0.00003785      -0.00003785      -0.00703815
Cu       8.97503743       5.38509057       7.18000510       0.00110747       0.00390590       0.00167133      -0.00706174
Cu      10.76997835       7.18216666       7.18216666       0.00000000       0.00887563       0.00887563      -0.00728893
Cu      12.56414948       8.97580722       7.18158176      -0.00619365       0.00619365       0.00631361      -0.00512663
Cu      14.35779004      10.76997835       7.18216666      -0.00887563       0.00000000       0.00887563      -0.00728893
Cu       7.18000498       1.79500623       8.97497212       0.00132494       0.00073327      -0.00073327      -0.00695050
Cu       8.97497212       3.58997337       8.97497212      -0.00073327      -0.00132494      -0.00073327      -0.00695050
Cu      10.76997835       5.38426164       8.97427757      -0.00000000      -0.00259758      -0.00248567      -0.00630662
Cu      12.56414948       7.18158176       8.97580722      -0.00619365       0.00631361       0.00619365      -0.00512663
Cu      14.35837494       8.97580722       8.97580722      -0.00631361       0.00619365       0.00619365      -0.00512663
Cu      16.15569506      10.76997835       8.97427757       0.00259758       0.00000000      -0.00248567      -0.00630662
Cu       8.97498077       1.79499759      10.76997835      -0.00003443       0.00003443      -0.00000000      -0.00710759
Cu      10.76997835       3.59008655      10.76997835       0.00000000       0.00040684      -0.00000000      -0.00736066
Cu      12.56567913       5.38426164      10.76997835       0.00248567      -0.00259758       0.00000000      -0.00630662
Cu      14.35779004       7.18216666      10.76997835      -0.00887563       0.00887563      -0.00000000      -0.00728893
Cu      16.15569506       8.97427757      10.76997835       0.00259758      -0.00248567      -0.00000000      -0.00630662
Cu      17.94987015      10.76997835      10.76997835      -0.00040684      -0.00000000      -0.00000000      -0.00736066
Cu       0.00000000       3.58998458       3.58998458      -0.00000000      -0.00009880      -0.00009880      -0.00673790
Cu       1.79494092       5.38509057       3.58997326      -0.00110747       0.00390590      -0.00167133      -0.00706174
Cu       3.58995321       7.18002515       3.58995321      -0.00321480       0.00321480      -0.00321480      -0.00703147
Cu       5.38488779       8.97503743       3.58997326      -0.00390590       0.00110747      -0.00167133      -0.00706174
Cu       7.17999377      10.76997835       3.58998458       0.00009880      -0.00000000      -0.00009880      -0.00673790
Cu       8.97497212      12.56498459       3.58997337      -0.00073327       0.00073327      -0.00132494      -0.00695050
Cu       1.79494092       3.58997326       5.38509057      -0.00110747      -0.00167133       0.00390590      -0.00706174
Cu       3.58999133       5.38498918       5.38498918      -0.00026534       0.00000000      -0.00000000      -0.00697361
Cu       5.38498918       7.17998702       5.38498918       0.00000000       0.00026534      -0.00000000      -0.00697361
Cu       7.18000510       8.97503743       5.38509057       0.00167133       0.00110747       0.00390590      -0.00706174
Cu       8.97427757      10.76997835       5.38426164      -0.00248567      -0.00000000      -0.00259758      -0.00630662
Cu      10.76997835      12.56567913       5.38426164       0.00000000       0.00248567      -0.00259758      -0.00630662
Cu       3.58995321       3.58995321       7.18002515      -0.00321480      -0.00321480       0.00321480      -0.00703147
Cu       5.38498918       5.38498918       7.17998702       0.00000000       0.00000000       0.00026534      -0.00697361
Cu       7.18002515       7.18002515       7.18002515       0.00321480       0.00321480       0.00321480      -0.00703147
Cu       8.97580722       8.97580722       7.18158176       0.00619365       0.00619365       0.00631361      -0.00512663
Cu      10.76997835      10.76997835       7.17165247       0.00000000      -0.00000000      -0.00213885       0.01024045
Cu      12.56414948      12.56414948       7.18158176      -0.00619365      -0.00619365       0.00631361      -0.00512663
Cu       5.38488779       3.58997326       8.97503743      -0.00390590      -0.00167133       0.00110747      -0.00706174
Cu       7.18000510       5.38509057       8.97503743       0.00167133       0.00390590       0.00110747      -0.00706174
Cu       8.97580722       7.18158176       8.97580722       0.00619365       0.00631361       0.00619365      -0.00512663
Cu      10.76997835       8.98599190       8.98599190       0.00000000       0.00345248       0.00345248       0.08135593
Cu      12.55396481      10.76997835       8.98599190      -0.00345248       0.00000000       0.00345248       0.08135593
Cu      14.35837494      12.56414948       8.97580722      -0.00631361      -0.00619365       0.00619365      -0.00512663
Cu       7.17999377       3.58998458      10.76997835       0.00009880      -0.00009880      -0.00000000      -0.00673790
Cu       8.97427757       5.38426164      10.76997835      -0.00248567      -0.00259758      -0.00000000      -0.00630662
Cu      10.76997835       7.17165247      10.76997835       0.00000000      -0.00213885      -0.00000000       0.01024045
Cu      12.55396481       8.98599190      10.76997835      -0.00345248       0.00345248       0.00000000       0.08135593
Cu      14.36830423      10.76997835      10.76997835       0.00213885      -0.00000000      -0.00000000       0.01024045
Cu      16.15569506      12.56567913      10.76997835       0.00259758       0.00248567       0.00000000      -0.00630662
Cu       8.97497212       3.58997337      12.56498459      -0.00073327      -0.00132494       0.00073327      -0.00695050
Cu      10.76997835       5.38426164      12.56567913      -0.00000000      -0.00259758       0.00248567      -0.00630662
Cu      12.56414948       7.18158176      12.56414948      -0.00619365       0.00631361      -0.00619365      -0.00512663
Cu      14.35837494       8.97580722      12.56414948      -0.00631361       0.00619365      -0.00619365      -0.00512663
Cu      16.15569506      10.76997835      12.56567913       0.00259758      -0.00000000       0.00248567      -0.00630662
Cu      17.94998334      12.56498459      12.56498459       0.00132494       0.00073327       0.00073327      -0.00695050
Cu      -0.00000000       5.38498918       5.38498918      -0.00000000       0.00000000       0.00000000      -0.00737208
Cu       1.79494092       7.18000510       5.38488779      -0.00110747       0.00167133      -0.00390590      -0.00706174
Cu       3.58997326       8.97503743       5.38488779      -0.00167133       0.00110747      -0.00390590      -0.00706174
Cu       5.38498918      10.76997835       5.38498918      -0.00000000       0.00000000      -0.00000000      -0.00737208
Cu       7.18000510      12.56491927       5.38509057       0.00167133      -0.00110747       0.00390590      -0.00706174
Cu       8.97503743      14.35995161       5.38509057       0.00110747      -0.00167133       0.00390590      -0.00706174
Cu       1.79494092       5.38488779       7.18000510      -0.00110747      -0.00390590       0.00167133      -0.00706174
Cu       3.58999218       7.17998617       7.17998617       0.00003785      -0.00003785      -0.00003785      -0.00703815
Cu       5.38509057       8.97503743       7.18000510       0.00390590       0.00110747       0.00167133      -0.00706174
Cu       7.18216666      10.76997835       7.18216666       0.00887563       0.00000000       0.00887563      -0.00728893
Cu       8.97580722      12.56414948       7.18158176       0.00619365      -0.00619365       0.00631361      -0.00512663
Cu      10.76997835      14.35779004       7.18216666      -0.00000000      -0.00887563       0.00887563      -0.00728893
Cu       3.58997326       5.38488779       8.97503743      -0.00167133      -0.00390590       0.00110747      -0.00706174
Cu       5.38509057       7.18000510       8.97503743       0.00390590       0.00167133       0.00110747      -0.00706174
Cu       7.18158176       8.97580722       8.97580722       0.00631361       0.00619365       0.00619365      -0.00512663
Cu       8.98599190      10.76997835       8.98599190       0.00345248       0.00000000       0.00345248       0.08135593
Cu      10.76997835      12.55396481       8.98599190      -0.00000000      -0.00345248       0.00345248       0.08135593
Cu      12.56414948      14.35837494       8.97580722      -0.00619365      -0.00631361       0.00619365      -0.00512663
Cu       5.38498918       5.38498918      10.76997835      -0.00000000      -0.00000000      -0.00000000      -0.00737208
Cu       7.18216666       7.18216666      10.76997835       0.00887563       0.00887563      -0.00000000      -0.00728893
Cu       8.98599190       8.98599190      10.76997835       0.00345248       0.00345248       0.00000000       0.08135593
Cu      12.55396481      12.55396481      10.76997835      -0.00345248      -0.00345248      -0.00000000       0.08135593
Cu      14.35779004      14.35779004      10.76997835      -0.00887563      -0.00887563       0.00000000      -0.00728893
Cu       7.18000510       5.38509057      12.56491927       0.00167133       0.00390590      -0.00110747      -0.00706174
Cu       8.97580722       7.18158176      12.56414948       0.00619365       0.00631361      -0.00619365      -0.00512663
Cu      10.76997835       8.98599190      12.55396481       0.00000000       0.00345248      -0.00345248       0.08135593
Cu      12.55396481      10.76997835      12.55396481      -0.00345248      -0.00000000      -0.00345248       0.08135593
Cu      14.35837494      12.56414948      12.56414948      -0.00631361      -0.00619365      -0.00619365      -0.00512663
Cu      16.15486614      14.35995161      12.56491927      -0.00390590      -0.00167133      -0.00110747      -0.00706174
Cu       8.97503743       5.38509057      14.35995161       0.00110747       0.00390590      -0.00167133      -0.00706174
Cu      10.76997835       7.18216666      14.35779004       0.00000000       0.00887563      -0.00887563      -0.00728893
Cu      12.56414948       8.97580722      14.35837494      -0.00619365       0.00619365      -0.00631361      -0.00512663
Cu      14.35779004      10.76997835      14.35779004      -0.00887563      -0.00000000      -0.00887563      -0.00728893
Cu      16.15486614      12.56491927      14.35995161      -0.00390590      -0.00110747      -0.00167133      -0.00706174
Cu      17.94996452      14.35997054      14.35997054      -0.00003785       0.00003785       0.00003785      -0.00703815
Cu      -0.00000000       7.17999377       7.17999377      -0.00000000       0.00009880       0.00009880      -0.00673790
Cu       1.79500623       8.97497212       7.18000498       0.00073327      -0.00073327       0.00132494      -0.00695050
Cu       3.58998458      10.76997835       7.17999377      -0.00009880       0.00000000       0.00009880      -0.00673790
Cu       5.38509057      12.56491927       7.18000510       0.00390590      -0.00110747       0.00167133      -0.00706174
Cu       7.18002515      14.35993156       7.18002515       0.00321480      -0.00321480       0.00321480      -0.00703147
Cu       8.97503743      16.15486614       7.18000510       0.00110747      -0.00390590       0.00167133      -0.00706174
Cu       1.79500623       7.18000498       8.97497212       0.00073327       0.00132494      -0.00073327      -0.00695050
Cu       3.58997337       8.97497212       8.97497212      -0.00132494      -0.00073327      -0.00073327      -0.00695050
Cu       5.38426164      10.76997835       8.97427757      -0.00259758       0.00000000      -0.00248567      -0.00630662
Cu       7.18158176      12.56414948       8.97580722       0.00631361      -0.00619365       0.00619365      -0.00512663
Cu       8.97580722      14.35837494       8.97580722       0.00619365      -0.00631361       0.00619365      -0.00512663
Cu      10.76997835      16.15569506       8.97427757      -0.00000000       0.00259758      -0.00248567      -0.00630662
Cu       3.58998458       7.17999377      10.76997835      -0.00009880       0.00009880      -0.00000000      -0.00673790
Cu       5.38426164       8.97427757      10.76997835      -0.00259758      -0.00248567       0.00000000      -0.00630662
Cu       7.17165247      10.76997835      10.76997835      -0.00213885      -0.00000000      -0.00000000       0.01024045
Cu       8.98599190      12.55396481      10.76997835       0.00345248      -0.00345248      -0.00000000       0.08135593
Cu      10.76997835      14.36830423      10.76997835      -0.00000000       0.00213885      -0.00000000       0.01024045
Cu      12.56567913      16.15569506      10.76997835       0.00248567       0.00259758       0.00000000      -0.00630662
Cu       5.38509057       7.18000510      12.56491927       0.00390590       0.00167133      -0.00110747      -0.00706174
Cu       7.18158176       8.97580722      12.56414948       0.00631361       0.00619365      -0.00619365      -0.00512663
Cu       8.98599190      10.76997835      12.55396481       0.00345248      -0.00000000      -0.00345248       0.08135593
Cu      10.76997835      12.55396481      12.55396481      -0.00000000      -0.00345248      -0.00345248       0.08135593
Cu      12.56414948      14.35837494      12.56414948      -0.00619365      -0.00631361      -0.00619365      -0.00512663
Cu      14.35995161      16.15486614      12.56491927      -0.00167133      -0.00390590      -0.00110747      -0.00706174
Cu       7.18002515       7.18002515      14.35993156       0.00321480       0.00321480      -0.00321480      -0.00703147
Cu       8.97580722       8.97580722      14.35837494       0.00619365       0.00619365      -0.00631361      -0.00512663
Cu      10.76997835      10.76997835      14.36830423       0.00000000       0.00000000       0.00213885       0.01024045
Cu      12.56414948      12.56414948      14.35837494      -0.00619365      -0.00619365      -0.00631361      -0.00512663
Cu      14.35993156      14.35993156      14.35993156      -0.00321480      -0.00321480      -0.00321480      -0.00703147
Cu      16.15496753      16.15496753      14.35996968      -0.00000000      -0.00000000      -0.00026534      -0.00697361
Cu       8.97503743       7.18000510      16.15486614       0.00110747       0.00167133      -0.00390590      -0.00706174
Cu      10.76997835       8.97427757      16.15569506       0.00000000      -0.00248567       0.00259758      -0.00630662
Cu      12.56567913      10.76997835      16.15569506       0.00248567      -0.00000000       0.00259758      -0.00630662
Cu      14.35995161      12.56491927      16.15486614      -0.00167133      -0.00110747      -0.00390590      -0.00706174
Cu      16.15496753      14.35996968      16.15496753       0.00000000      -0.00026534      -0.00000000      -0.00697361
Cu      17.94996538      16.15496753      16.15496753       0.00026534      -0.00000000       0.00000000      -0.00697361
Cu       0.00000000       8.97498077       8.97498077       0.00000000      -0.00003443      -0.00003443      -0.00710759
Cu       1.79499759      10.76997835       8.97498077       0.00003443      -0.00000000      -0.00003443      -0.00710759
Cu       3.58997337      12.56498459       8.97497212      -0.00132494       0.00073327      -0.00073327      -0.00695050
Cu       5.38509057      14.35995161       8.97503743       0.00390590      -0.00167133       0.00110747      -0.00706174
Cu       7.18000510      16.15486614       8.97503743       0.00167133      -0.00390590       0.00110747      -0.00706174
Cu       8.97497212      17.94998334       8.97497212      -0.00073327       0.00132494      -0.00073327      -0.00695050
Cu       1.79499759       8.97498077      10.76997835       0.00003443      -0.00003443       0.00000000      -0.00710759
Cu       3.59008655      10.76997835      10.76997835       0.00040684       0.00000000       0.00000000      -0.00736066
Cu       5.38426164      12.56567913      10.76997835      -0.00259758       0.00248567       0.00000000      -0.00630662
Cu       7.18216666      14.35779004      10.76997835       0.00887563      -0.00887563      -0.00000000      -0.00728893
Cu       8.97427757      16.15569506      10.76997835      -0.00248567       0.00259758      -0.00000000      -0.00630662
Cu      10.76997835      17.94987015      10.76997835       0.00000000      -0.00040684       0.00000000      -0.00736066
Cu       3.58997337       8.97497212      12.56498459      -0.00132494      -0.00073327       0.00073327      -0.00695050
Cu       5.38426164      10.76997835      12.56567913      -0.00259758       0.00000000       0.00248567      -0.00630662
Cu       7.18158176      12.56414948      12.56414948       0.00631361      -0.00619365      -0.00619365      -0.00512663
Cu       8.97580722      14.35837494      12.56414948       0.00619365      -0.00631361      -0.00619365      -0.00512663
Cu      10.76997835      16.15569506      12.56567913       0.00000000       0.00259758       0.00248567      -0.00630662
Cu      12.56498459      17.94998334      12.56498459       0.00073327       0.00132494       0.00073327      -0.00695050
Cu       5.38509057       8.97503743      14.35995161       0.00390590       0.00110747      -0.00167133      -0.00706174
Cu       7.18216666      10.76997835      14.35779004       0.00887563       0.00000000      -0.00887563      -0.00728893
Cu       8.97580722      12.56414948      14.35837494       0.00619365      -0.00619365      -0.00631361      -0.00512663
Cu      10.76997835      14.35779004      14.35779004      -0.00000000      -0.00887563      -0.00887563      -0.00728893
Cu      12.56491927      16.15486614      14.35995161      -0.00110747      -0.00390590      -0.00167133      -0.00706174
Cu      14.35997054      17.94996452      14.35997054       0.00003785      -0.00003785       0.00003785      -0.00703815
Cu       7.18000510       8.97503743      16.15486614       0.00167133       0.00110747      -0.00390590      -0.00706174
Cu       8.97427757      10.76997835      16.15569506      -0.00248567       0.00000000       0.00259758      -0.00630662
Cu      10.76997835      12.56567913      16.15569506      -0.00000000       0.00248567       0.00259758      -0.00630662
Cu      12.56491927      14.35995161      16.15486614      -0.00110747      -0.00167133      -0.00390590      -0.00706174
Cu      14.35996968      16.15496753      16.15496753      -0.00026534       0.00000000       0.00000000      -0.00697361
Cu      16.15496753      17.94996538      16.15496753      -0.00000000       0.00026534       0.00000000      -0.00697361
Cu       8.97497212       8.97497212      17.94998334      -0.00073327      -0.00073327       0.00132494      -0.00695050
Cu      10.76997835      10.76997835      17.94987015      -0.00000000       0.00000000      -0.00040684      -0.00736066
Cu      12.56498459      12.56498459      17.94998334       0.00073327       0.00073327       0.00132494      -0.00695050
Cu      14.35997054      14.35997054      17.94996452       0.00003785       0.00003785      -0.00003785      -0.00703815
Cu      16.15496753      16.15496753      17.94996538      -0.00000000       0.00000000       0.00026534      -0.00697361
Cu      17.94996452      17.94996452      17.94996452      -0.00003785      -0.00003785      -0.00003785      -0.00703815
