1
Lattice="0.0 16.795 16.795 16.795 0.0 16.795 16.795 16.795 0.0" Properties=species:S:1:pos:R:3:forces:R:3:energies:R:1 config_type=isolated_atom energy=3.51 free_energy=3.51 pbc="T T T"
Cu       0.00000000       0.00000000       0.00000000       0.00000000       0.00000000       0.00000000       3.51000000
