215
Lattice="0.0 10.769978352079763 10.769978352079763 10.769978352079763 0.0 10.769978352079763 10.769978352079763 10.769978352079763 0.0" Properties=species:S:1:pos:R:3:forces:R:3:energies:R:1 config_type=bulk_vac_images energy=-0.28772583453653944 free_energy=-0.28772583453653944 pbc="T T T"
Cu      -0.00000119      -0.00000119      -0.00000000      -0.00003443      -0.00003443      -0.00000000      -0.00710759
Cu       1.79499639       1.79499639       0.00000000      -0.00000000      -0.00000000       0.00000000      -0.00701617
Cu       3.58999398       3.58999398       0.00000000       0.00003443       0.00003443      -0.00000000      -0.00710759
Cu       5.38498098       5.38498098       0.00000000      -0.00009880      -0.00009880      -0.00000000      -0.00673790
Cu       7.17998557       7.17998557       0.00000000       0.00000000      -0.00000000      -0.00000000      -0.00737208
Cu       8.97499016       8.97499016      -0.00000000       0.00009880       0.00009880       0.00000000      -0.00673790
Cu       1.79499639      -0.00000119       1.79499759       0.00000000      -0.00003443       0.00003443      -0.00710759
Cu       3.58999398       1.79499639       1.79499759       0.00003443      -0.00000000       0.00003443      -0.00710759
Cu       5.38496976       3.59000263       1.79500623      -0.00132494       0.00073327       0.00073327      -0.00695050
Cu       7.18008696       5.38496965       1.79494092       0.00390590      -0.00167133      -0.00110747      -0.00706174
Cu       8.97500149       7.17988418       1.79494092       0.00167133      -0.00390590      -0.00110747      -0.00706174
Cu      10.76996851       8.97500138       1.79500623      -0.00073327       0.00132494       0.00073327      -0.00695050
Cu       3.59000263      -0.00000984       3.58997337       0.00073327      -0.00073327      -0.00132494      -0.00695050
Cu       5.38498098       1.79499639       3.58998458      -0.00009880       0.00000000      -0.00009880      -0.00673790
Cu       7.18008696       3.58993731       3.58997326       0.00390590      -0.00110747      -0.00167133      -0.00706174
Cu       8.97502154       5.38494960       3.58995321       0.00321480      -0.00321480      -0.00321480      -0.00703147
Cu      10.77003383       7.17988418       3.58997326       0.00110747      -0.00390590      -0.00167133      -0.00706174
Cu      12.56497474       8.97499016       3.58998458      -0.00000000       0.00009880      -0.00009880      -0.00673790
Cu       5.38496965       0.00005547       5.38509057      -0.00167133       0.00110747       0.00390590      -0.00706174
Cu       7.17998557       1.79499639       5.38498918       0.00000000      -0.00000000       0.00000000      -0.00737208
Cu       8.97500149       3.58993731       5.38488779       0.00167133      -0.00110747      -0.00390590      -0.00706174
Cu      10.77003383       5.38496965       5.38488779       0.00110747      -0.00167133      -0.00390590      -0.00706174
Cu      12.56497474       7.17998557       5.38498918       0.00000000      -0.00000000      -0.00000000      -0.00737208
Cu      14.35991566       8.97500149       5.38509057      -0.00110747       0.00167133       0.00390590      -0.00706174
Cu       7.17988418       0.00005547       7.18000510      -0.00390590       0.00110747       0.00167133      -0.00706174
Cu       8.97499016       1.79499639       7.17999377       0.00009880       0.00000000       0.00009880      -0.00673790
Cu      10.76996851       3.59000263       7.18000498      -0.00073327       0.00073327       0.00132494      -0.00695050
Cu      12.56497474       5.38498098       7.17999377       0.00000000      -0.00009880       0.00009880      -0.00673790
Cu      14.35991566       7.18008696       7.18000510      -0.00110747       0.00390590       0.00167133      -0.00706174
Cu      16.15492795       8.97502154       7.18002515      -0.00321480       0.00321480       0.00321480      -0.00703147
Cu       8.97500138      -0.00000984       8.97497212       0.00132494      -0.00073327      -0.00073327      -0.00695050
Cu      10.76997716       1.79499639       8.97498077      -0.00003443       0.00000000      -0.00003443      -0.00710759
Cu      12.56497474       3.58999398       8.97498077      -0.00000000       0.00003443      -0.00003443      -0.00710759
Cu      14.35998098       5.38496976       8.97497212       0.00073327      -0.00132494      -0.00073327      -0.00695050
Cu      16.15494800       7.18008696       8.97503743      -0.00167133       0.00390590       0.00110747      -0.00706174
Cu      17.94986253       8.97500149       8.97503743      -0.00390590       0.00167133       0.00110747      -0.00706174
Cu      -0.00000119       1.79499639       1.79499759      -0.00003443      -0.00000000       0.00003443      -0.00710759
Cu       1.79499639       3.58999398       1.79499759       0.00000000       0.00003443       0.00003443      -0.00710759
Cu       3.59000263       5.38496976       1.79500623       0.00073327      -0.00132494       0.00073327      -0.00695050
Cu       5.38496965       7.18008696       1.79494092      -0.00167133       0.00390590      -0.00110747      -0.00706174
Cu       7.17988418       8.97500149       1.79494092      -0.00390590       0.00167133      -0.00110747      -0.00706174
Cu       8.97500138      10.76996851       1.79500623       0.00132494      -0.00073327       0.00073327      -0.00695050
Cu       1.79499639       1.79499639       3.59008655       0.00000000       0.00000000       0.00040684      -0.00736066
Cu       3.59000263       3.59000263       3.58997337       0.00073327       0.00073327      -0.00132494      -0.00695050
Cu       5.38498858       5.38498858       3.58999218       0.00003785       0.00003785       0.00003785      -0.00703815
Cu       7.17998557       7.17998557       3.58999133      -0.00000000       0.00000000      -0.00026534      -0.00697361
Cu       8.97498256       8.97498256       3.58999218      -0.00003785      -0.00003785       0.00003785      -0.00703815
Cu      10.76996851      10.76996851       3.58997337      -0.00073327      -0.00073327      -0.00132494      -0.00695050
Cu       3.59069717       1.79499639       5.38426164       0.00248567       0.00000000      -0.00259758      -0.00630662
Cu       5.38496965       3.58993731       5.38509057      -0.00167133      -0.00110747       0.00390590      -0.00706174
Cu       7.17998557       5.38498772       5.38498918       0.00000000      -0.00026534       0.00000000      -0.00697361
Cu       8.97498342       7.17998557       5.38498918       0.00026534       0.00000000       0.00000000      -0.00697361
Cu      10.77003383       8.97500149       5.38509057       0.00110747       0.00167133       0.00390590      -0.00706174
Cu      12.56497474      10.76927397       5.38426164       0.00000000      -0.00248567      -0.00259758      -0.00630662
Cu       5.38280808       1.79499639       7.18216666      -0.00887563      -0.00000000       0.00887563      -0.00728893
Cu       7.17988418       3.58993731       7.18000510      -0.00390590      -0.00110747       0.00167133      -0.00706174
Cu       8.97498256       5.38498858       7.17998617      -0.00003785       0.00003785      -0.00003785      -0.00703815
Cu      10.77003383       7.18008696       7.18000510       0.00110747       0.00390590       0.00167133      -0.00706174
Cu      12.56497474       8.97716305       7.18216666       0.00000000       0.00887563       0.00887563      -0.00728893
Cu      14.35914588      10.77080361       7.18158176      -0.00619365       0.00619365       0.00631361      -0.00512663
Cu       7.18071310       1.79499639       8.97427757       0.00259758       0.00000000      -0.00248567      -0.00630662
Cu       8.97500138       3.59000263       8.97497212       0.00132494       0.00073327      -0.00073327      -0.00695050
Cu      10.76996851       5.38496976       8.97497212      -0.00073327      -0.00132494      -0.00073327      -0.00695050
Cu      12.56497474       7.17925803       8.97427757      -0.00000000      -0.00259758      -0.00248567      -0.00630662
Cu      14.35914588       8.97657815       8.97580722      -0.00619365       0.00631361       0.00619365      -0.00512663
Cu      16.15337133      10.77080361       8.97580722      -0.00631361       0.00619365       0.00619365      -0.00512663
Cu       8.97488819       1.79499639      10.76997835      -0.00040684       0.00000000      -0.00000000      -0.00736066
Cu      10.76997716       3.58999398      10.76997835      -0.00003443       0.00003443      -0.00000000      -0.00710759
Cu      12.56497474       5.38508295      10.76997835      -0.00000000       0.00040684      -0.00000000      -0.00736066
Cu      14.36067552       7.17925803      10.76997835       0.00248567      -0.00259758       0.00000000      -0.00630662
Cu      16.15278644       8.97716305      10.76997835      -0.00887563       0.00887563       0.00000000      -0.00728893
Cu      17.95069146      10.76927397      10.76997835       0.00259758      -0.00248567       0.00000000      -0.00630662
Cu      -0.00000984       3.59000263       3.58997337      -0.00073327       0.00073327      -0.00132494      -0.00695050
Cu       1.79499639       5.38498098       3.58998458       0.00000000      -0.00009880      -0.00009880      -0.00673790
Cu       3.58993731       7.18008696       3.58997326      -0.00110747       0.00390590      -0.00167133      -0.00706174
Cu       5.38494960       8.97502154       3.58995321      -0.00321480       0.00321480      -0.00321480      -0.00703147
Cu       7.17988418      10.77003383       3.58997326      -0.00390590       0.00110747      -0.00167133      -0.00706174
Cu       8.97499016      12.56497474       3.58998458       0.00009880       0.00000000      -0.00009880      -0.00673790
Cu       1.79499639       3.59069717       5.38426164      -0.00000000       0.00248567      -0.00259758      -0.00630662
Cu       3.58993731       5.38496965       5.38509057      -0.00110747      -0.00167133       0.00390590      -0.00706174
Cu       5.38498772       7.17998557       5.38498918      -0.00026534       0.00000000      -0.00000000      -0.00697361
Cu       7.17998557       8.97498342       5.38498918       0.00000000       0.00026534      -0.00000000      -0.00697361
Cu       8.97500149      10.77003383       5.38509057       0.00167133       0.00110747       0.00390590      -0.00706174
Cu      10.76927397      12.56497474       5.38426164      -0.00248567      -0.00000000      -0.00259758      -0.00630662
Cu       3.58916752       3.58916752       7.18158176      -0.00619365      -0.00619365       0.00631361      -0.00512663
Cu       5.38494960       5.38494960       7.18002515      -0.00321480      -0.00321480       0.00321480      -0.00703147
Cu       7.17998557       7.17998557       7.17998702       0.00000000      -0.00000000       0.00026534      -0.00697361
Cu       8.97502154       8.97502154       7.18002515       0.00321480       0.00321480       0.00321480      -0.00703147
Cu      10.77080361      10.77080361       7.18158176       0.00619365       0.00619365       0.00631361      -0.00512663
Cu      12.56497474      12.56497474       7.17165247       0.00000000       0.00000000      -0.00213885       0.01024045
Cu       5.38339298       3.58916752       8.97580722      -0.00631361      -0.00619365       0.00619365      -0.00512663
Cu       7.17988418       5.38496965       8.97503743      -0.00390590      -0.00167133       0.00110747      -0.00706174
Cu       8.97500149       7.18008696       8.97503743       0.00167133       0.00390590       0.00110747      -0.00706174
Cu      10.77080361       8.97657815       8.97580722       0.00619365       0.00631361       0.00619365      -0.00512663
Cu      12.56497474      10.78098829       8.98599190      -0.00000000       0.00345248       0.00345248       0.08135593
Cu      14.34896120      12.56497474       8.98599190      -0.00345248      -0.00000000       0.00345248       0.08135593
Cu       7.18071310       3.59069717      10.76997835       0.00259758       0.00248567       0.00000000      -0.00630662
Cu       8.97499016       5.38498098      10.76997835       0.00009880      -0.00009880       0.00000000      -0.00673790
Cu      10.76927397       7.17925803      10.76997835      -0.00248567      -0.00259758      -0.00000000      -0.00630662
Cu      12.56497474       8.96664887      10.76997835      -0.00000000      -0.00213885       0.00000000       0.01024045
Cu      14.34896120      10.78098829      10.76997835      -0.00345248       0.00345248       0.00000000       0.08135593
Cu      16.16330062      12.56497474      10.76997835       0.00213885      -0.00000000       0.00000000       0.01024045
Cu       8.97500138       3.59000263      12.56498459       0.00132494       0.00073327       0.00073327      -0.00695050
Cu      10.76996851       5.38496976      12.56498459      -0.00073327      -0.00132494       0.00073327      -0.00695050
Cu      12.56497474       7.17925803      12.56567913      -0.00000000      -0.00259758       0.00248567      -0.00630662
Cu      14.35914588       8.97657815      12.56414948      -0.00619365       0.00631361      -0.00619365      -0.00512663
Cu      16.15337133      10.77080361      12.56414948      -0.00631361       0.00619365      -0.00619365      -0.00512663
Cu      17.95069146      12.56497474      12.56567913       0.00259758      -0.00000000       0.00248567      -0.00630662
Cu       0.00005547       5.38496965       5.38509057       0.00110747      -0.00167133       0.00390590      -0.00706174
Cu       1.79499639       7.17998557       5.38498918      -0.00000000      -0.00000000      -0.00000000      -0.00737208
Cu       3.58993731       8.97500149       5.38488779      -0.00110747       0.00167133      -0.00390590      -0.00706174
Cu       5.38496965      10.77003383       5.38488779      -0.00167133       0.00110747      -0.00390590      -0.00706174
Cu       7.17998557      12.56497474       5.38498918      -0.00000000       0.00000000      -0.00000000      -0.00737208
Cu       8.97500149      14.35991566       5.38509057       0.00167133      -0.00110747       0.00390590      -0.00706174
Cu       1.79499639       5.38280808       7.18216666       0.00000000      -0.00887563       0.00887563      -0.00728893
Cu       3.58993731       7.17988418       7.18000510      -0.00110747      -0.00390590       0.00167133      -0.00706174
Cu       5.38498858       8.97498256       7.17998617       0.00003785      -0.00003785      -0.00003785      -0.00703815
Cu       7.18008696      10.77003383       7.18000510       0.00390590       0.00110747       0.00167133      -0.00706174
Cu       8.97716305      12.56497474       7.18216666       0.00887563       0.00000000       0.00887563      -0.00728893
Cu      10.77080361      14.35914588       7.18158176       0.00619365      -0.00619365       0.00631361      -0.00512663
Cu       3.58916752       5.38339298       8.97580722      -0.00619365      -0.00631361       0.00619365      -0.00512663
Cu       5.38496965       7.17988418       8.97503743      -0.00167133      -0.00390590       0.00110747      -0.00706174
Cu       7.18008696       8.97500149       8.97503743       0.00390590       0.00167133       0.00110747      -0.00706174
Cu       8.97657815      10.77080361       8.97580722       0.00631361       0.00619365       0.00619365      -0.00512663
Cu      10.78098829      12.56497474       8.98599190       0.00345248       0.00000000       0.00345248       0.08135593
Cu      12.56497474      14.34896120       8.98599190      -0.00000000      -0.00345248       0.00345248       0.08135593
Cu       5.38280808       5.38280808      10.76997835      -0.00887563      -0.00887563       0.00000000      -0.00728893
Cu       7.17998557       7.17998557      10.76997835      -0.00000000       0.00000000      -0.00000000      -0.00737208
Cu       8.97716305       8.97716305      10.76997835       0.00887563       0.00887563      -0.00000000      -0.00728893
Cu      10.78098829      10.78098829      10.76997835       0.00345248       0.00345248       0.00000000       0.08135593
Cu      14.34896120      14.34896120      10.76997835      -0.00345248      -0.00345248       0.00000000       0.08135593
Cu       7.17988418       5.38496965      12.56491927      -0.00390590      -0.00167133      -0.00110747      -0.00706174
Cu       8.97500149       7.18008696      12.56491927       0.00167133       0.00390590      -0.00110747      -0.00706174
Cu      10.77080361       8.97657815      12.56414948       0.00619365       0.00631361      -0.00619365      -0.00512663
Cu      12.56497474      10.78098829      12.55396481      -0.00000000       0.00345248      -0.00345248       0.08135593
Cu      14.34896120      12.56497474      12.55396481      -0.00345248       0.00000000      -0.00345248       0.08135593
Cu      16.15337133      14.35914588      12.56414948      -0.00631361      -0.00619365      -0.00619365      -0.00512663
Cu       8.97498256       5.38498858      14.35997054      -0.00003785       0.00003785       0.00003785      -0.00703815
Cu      10.77003383       7.18008696      14.35995161       0.00110747       0.00390590      -0.00167133      -0.00706174
Cu      12.56497474       8.97716305      14.35779004       0.00000000       0.00887563      -0.00887563      -0.00728893
Cu      14.35914588      10.77080361      14.35837494      -0.00619365       0.00619365      -0.00631361      -0.00512663
Cu      16.15278644      12.56497474      14.35779004      -0.00887563       0.00000000      -0.00887563      -0.00728893
Cu      17.94986253      14.35991566      14.35995161      -0.00390590      -0.00110747      -0.00167133      -0.00706174
Cu       0.00005547       7.17988418       7.18000510       0.00110747      -0.00390590       0.00167133      -0.00706174
Cu       1.79499639       8.97499016       7.17999377       0.00000000       0.00009880       0.00009880      -0.00673790
Cu       3.59000263      10.76996851       7.18000498       0.00073327      -0.00073327       0.00132494      -0.00695050
Cu       5.38498098      12.56497474       7.17999377      -0.00009880      -0.00000000       0.00009880      -0.00673790
Cu       7.18008696      14.35991566       7.18000510       0.00390590      -0.00110747       0.00167133      -0.00706174
Cu       8.97502154      16.15492795       7.18002515       0.00321480      -0.00321480       0.00321480      -0.00703147
Cu       1.79499639       7.18071310       8.97427757       0.00000000       0.00259758      -0.00248567      -0.00630662
Cu       3.59000263       8.97500138       8.97497212       0.00073327       0.00132494      -0.00073327      -0.00695050
Cu       5.38496976      10.76996851       8.97497212      -0.00132494      -0.00073327      -0.00073327      -0.00695050
Cu       7.17925803      12.56497474       8.97427757      -0.00259758       0.00000000      -0.00248567      -0.00630662
Cu       8.97657815      14.35914588       8.97580722       0.00631361      -0.00619365       0.00619365      -0.00512663
Cu      10.77080361      16.15337133       8.97580722       0.00619365      -0.00631361       0.00619365      -0.00512663
Cu       3.59069717       7.18071310      10.76997835       0.00248567       0.00259758       0.00000000      -0.00630662
Cu       5.38498098       8.97499016      10.76997835      -0.00009880       0.00009880       0.00000000      -0.00673790
Cu       7.17925803      10.76927397      10.76997835      -0.00259758      -0.00248567      -0.00000000      -0.00630662
Cu       8.96664887      12.56497474      10.76997835      -0.00213885      -0.00000000      -0.00000000       0.01024045
Cu      10.78098829      14.34896120      10.76997835       0.00345248      -0.00345248      -0.00000000       0.08135593
Cu      12.56497474      16.16330062      10.76997835       0.00000000       0.00213885       0.00000000       0.01024045
Cu       5.38496965       7.17988418      12.56491927      -0.00167133      -0.00390590      -0.00110747      -0.00706174
Cu       7.18008696       8.97500149      12.56491927       0.00390590       0.00167133      -0.00110747      -0.00706174
Cu       8.97657815      10.77080361      12.56414948       0.00631361       0.00619365      -0.00619365      -0.00512663
Cu      10.78098829      12.56497474      12.55396481       0.00345248      -0.00000000      -0.00345248       0.08135593
Cu      12.56497474      14.34896120      12.55396481       0.00000000      -0.00345248      -0.00345248       0.08135593
Cu      14.35914588      16.15337133      12.56414948      -0.00619365      -0.00631361      -0.00619365      -0.00512663
Cu       7.17998557       7.17998557      14.35996968       0.00000000      -0.00000000      -0.00026534      -0.00697361
Cu       8.97502154       8.97502154      14.35993156       0.00321480       0.00321480      -0.00321480      -0.00703147
Cu      10.77080361      10.77080361      14.35837494       0.00619365       0.00619365      -0.00631361      -0.00512663
Cu      12.56497474      12.56497474      14.36830423      -0.00000000       0.00000000       0.00213885       0.01024045
Cu      14.35914588      14.35914588      14.35837494      -0.00619365      -0.00619365      -0.00631361      -0.00512663
Cu      16.15492795      16.15492795      14.35993156      -0.00321480      -0.00321480      -0.00321480      -0.00703147
Cu       8.97498342       7.17998557      16.15496753       0.00026534       0.00000000      -0.00000000      -0.00697361
Cu      10.77003383       8.97500149      16.15486614       0.00110747       0.00167133      -0.00390590      -0.00706174
Cu      12.56497474      10.76927397      16.15569506      -0.00000000      -0.00248567       0.00259758      -0.00630662
Cu      14.36067552      12.56497474      16.15569506       0.00248567       0.00000000       0.00259758      -0.00630662
Cu      16.15494800      14.35991566      16.15486614      -0.00167133      -0.00110747      -0.00390590      -0.00706174
Cu      17.94996392      16.15496607      16.15496753      -0.00000000      -0.00026534      -0.00000000      -0.00697361
Cu      -0.00000984       8.97500138       8.97497212      -0.00073327       0.00132494      -0.00073327      -0.00695050
Cu       1.79499639      10.76997716       8.97498077      -0.00000000      -0.00003443      -0.00003443      -0.00710759
Cu       3.58999398      12.56497474       8.97498077       0.00003443       0.00000000      -0.00003443      -0.00710759
Cu       5.38496976      14.35998098       8.97497212      -0.00132494       0.00073327      -0.00073327      -0.00695050
Cu       7.18008696      16.15494800       8.97503743       0.00390590      -0.00167133       0.00110747      -0.00706174
Cu       8.97500149      17.94986253       8.97503743       0.00167133      -0.00390590       0.00110747      -0.00706174
Cu       1.79499639       8.97488819      10.76997835       0.00000000      -0.00040684      -0.00000000      -0.00736066
Cu       3.58999398      10.76997716      10.76997835       0.00003443      -0.00003443       0.00000000      -0.00710759
Cu       5.38508295      12.56497474      10.76997835       0.00040684       0.00000000      -0.00000000      -0.00736066
Cu       7.17925803      14.36067552      10.76997835      -0.00259758       0.00248567      -0.00000000      -0.00630662
Cu       8.97716305      16.15278644      10.76997835       0.00887563      -0.00887563       0.00000000      -0.00728893
Cu      10.76927397      17.95069146      10.76997835      -0.00248567       0.00259758      -0.00000000      -0.00630662
Cu       3.59000263       8.97500138      12.56498459       0.00073327       0.00132494       0.00073327      -0.00695050
Cu       5.38496976      10.76996851      12.56498459      -0.00132494      -0.00073327       0.00073327      -0.00695050
Cu       7.17925803      12.56497474      12.56567913      -0.00259758      -0.00000000       0.00248567      -0.00630662
Cu       8.97657815      14.35914588      12.56414948       0.00631361      -0.00619365      -0.00619365      -0.00512663
Cu      10.77080361      16.15337133      12.56414948       0.00619365      -0.00631361      -0.00619365      -0.00512663
Cu      12.56497474      17.95069146      12.56567913       0.00000000       0.00259758       0.00248567      -0.00630662
Cu       5.38498858       8.97498256      14.35997054       0.00003785      -0.00003785       0.00003785      -0.00703815
Cu       7.18008696      10.77003383      14.35995161       0.00390590       0.00110747      -0.00167133      -0.00706174
Cu       8.97716305      12.56497474      14.35779004       0.00887563      -0.00000000      -0.00887563      -0.00728893
Cu      10.77080361      14.35914588      14.35837494       0.00619365      -0.00619365      -0.00631361      -0.00512663
Cu      12.56497474      16.15278644      14.35779004       0.00000000      -0.00887563      -0.00887563      -0.00728893
Cu      14.35991566      17.94986253      14.35995161      -0.00110747      -0.00390590      -0.00167133      -0.00706174
Cu       7.17998557       8.97498342      16.15496753       0.00000000       0.00026534       0.00000000      -0.00697361
Cu       8.97500149      10.77003383      16.15486614       0.00167133       0.00110747      -0.00390590      -0.00706174
Cu      10.76927397      12.56497474      16.15569506      -0.00248567       0.00000000       0.00259758      -0.00630662
Cu      12.56497474      14.36067552      16.15569506       0.00000000       0.00248567       0.00259758      -0.00630662
Cu      14.35991566      16.15494800      16.15486614      -0.00110747      -0.00167133      -0.00390590      -0.00706174
Cu      16.15496607      17.94996392      16.15496753      -0.00026534      -0.00000000      -0.00000000      -0.00697361
Cu       8.97498256       8.97498256      17.94996452      -0.00003785      -0.00003785      -0.00003785      -0.00703815
Cu      10.76996851      10.76996851      17.94998334      -0.00073327      -0.00073327       0.00132494      -0.00695050
Cu      12.56497474      12.56497474      17.94987015      -0.00000000      -0.00000000      -0.00040684      -0.00736066
Cu      14.35998098      14.35998098      17.94998334       0.00073327       0.00073327       0.00132494      -0.00695050
Cu      16.15496693      16.15496693      17.94996452       0.00003785       0.00003785      -0.00003785      -0.00703815
Cu      17.94996392      17.94996392      17.94996538       0.00000000      -0.00000000       0.00026534      -0.00697361
