 # File generated with Atomsk by hari on 2023-01-31 10:09:43
 
         215  atoms
           1  atom types
 
      0.000000000000      15.231049451976  xlo xhi
      0.000000000000      13.190475751708  ylo yhi
      0.000000000000      12.436099801479  zlo zhi
      7.615524725988       7.615524725988       4.396825250569  xy xz yz
 
Masses
 
            1   63.54600000             # Cu
 
Atoms # atomic
 
         1    1        0.000000000000       0.000000000000       0.000000000000
         2    1        1.269254968103       0.732804697504       2.072684683562
         3    1        2.538502440873       1.465605067577       4.145357127299
         4    1        3.807762365794       2.198412626901       6.218049905312
         5    1        5.077022283644       2.931220182144       8.290742671779
         6    1        6.346269763486       3.664020556299      10.363415127062
         7    1        1.269254968103       2.198414092513       0.000000000000
         8    1        2.538522155010       2.931200982227       2.072672091553
         9    1        3.807709332786       3.664089154259       4.145445894903
        10    1        5.076905568599       4.396859942660       6.218034669039
        11    1        6.346291287816       5.129617516064       8.290733047350
        12    1        7.615524731588       5.862434640646      10.363415121289
        13    1        2.538502440873       4.396815202730       0.000000000000
        14    1        3.807709332786       5.129726922523       2.072721085497
        15    1        5.076960517867       5.862465985950       4.145389453141
        16    1        6.346185108662       6.595316586892       6.218034663265
        17    1        7.615524724517       7.328035384874       8.290742671779
        18    1        8.884758161218       8.060850423307      10.363427713298
        19    1        3.807762365794       6.595237880704       0.000000000000
        20    1        5.076905568599       7.328039287727       2.072721085497
        21    1        6.346185108662       8.060858163695       4.145445889130
        22    1        7.615524731588       8.793650499441       6.218049899539
        23    1        8.884864354515       9.526442835187       8.290653909948
        24    1       10.154143887507      10.259261723401      10.363378713581
        25    1        5.077022283644       8.793660546431       0.000000000000
        26    1        6.346291287816       9.526450583739       2.072672091553
        27    1        7.615524724517      10.259265614008       4.145357127299
        28    1        8.884864354515      10.991984411989       6.218065135813
        29    1       10.154088945310      11.724835021096       8.290710351711
        30    1       11.423340123320      12.457574088605      10.363378713581
        31    1        6.346269763486      10.992061668896       0.000000000000
        32    1        7.615524731588      11.724866358235       2.072684677789
        33    1        8.884758161218      12.457683490982       4.145366757502
        34    1       10.154143887507      13.190441060304       6.218065141586
        35    1       11.423340123320      13.923211848705       8.290653915722
        36    1       12.692527294024      14.656100024820      10.363427713298
        37    1        2.538509936205       0.000000000000       0.000000000000
        38    1        3.807755591711       0.732824183195       2.072672091553
        39    1        5.077048955712       1.465528435290       4.145445894903
        40    1        6.346245191525       2.198299223691       6.218034669039
        41    1        7.615524724517       2.931240717033       8.290733047350
        42    1        8.884779692620       3.664020560381      10.363415121289
        43    1        3.807755591711       2.198408715883       0.000022568622
        44    1        5.077015629769       2.931216340527       2.072682951512
        45    1        6.346269579638       3.664020450154       4.145367444549
        46    1        7.615524724517       4.396825249720       6.218050944543
        47    1        8.884758161218       5.129617516064       8.290733047350
        48    1       10.154099269069       5.862471946375      10.363362363021
        49    1        5.077048955712       4.396873349534      -0.000101838814
        50    1        6.346269579638       5.129630057452       2.072682460764
        51    1        7.615524731588       5.862434852935       4.145367438775
        52    1        8.884864354515       6.595316586892       6.218034663265
        53    1       10.153020443324       7.328032633280       8.290746563119
        54    1       11.422772641844       8.061124406900      10.364243220554
        55    1        6.346245191525       6.595185714738      -0.000101838814
        56    1        7.615524724517       7.328043068106       2.072682951512
        57    1        8.884864354515       8.060858163695       4.145445889130
        58    1       10.157117497796       8.793650499441       6.218049899539
        59    1       11.424999314027       9.526095615933       8.289811636735
        60    1       12.694083473415      10.258368488389      10.360897989585
        61    1        7.615524724517       8.793658317395       0.000022568622
        62    1        8.884758161218       9.526450583739       2.072672091553
        63    1       10.153020443324      10.259268365601       4.145353235958
        64    1       11.424999314027      10.991074569437       6.218018532099
        65    1       12.693708303770      11.723564046188       8.289811636735
        66    1       13.961297250515      12.457978005381      10.364243220554
        67    1        8.884779692620      10.992061664813       0.000000005774
        68    1       10.154099269069      11.724829052506       2.072737436057
        69    1       11.422772641844      12.458543686460       4.145353235958
        70    1       12.694083473415      13.187804466287       6.218049899539
        71    1       13.961297250515      13.924161552621       8.290746563119
        72    1       15.231049449035      14.656007605572      10.363362363021
        73    1        5.077004881746       0.000000000000       0.000000000000
        74    1        6.346328495775       0.732709551158       2.072721085497
        75    1        7.615524731588       1.465543789508       4.145389453141
        76    1        8.884804264580       2.198299227774       6.218034663265
        77    1       10.154027165390       2.931220182144       8.290742671779
        78    1       11.423280323300       3.664001062443      10.363427713298
        79    1        6.346328495775       2.198416697137      -0.000101838814
        80    1        7.615524731588       2.931215646505       2.072682460764
        81    1        8.884779876468       3.664020454236       4.145367438775
        82    1       10.154143887507       4.396859946743       6.218034663265
        83    1       11.422772641844       5.128757312421       8.290746563119
        84    1       12.692524840364       5.861849086041      10.364243220554
        85    1        7.615524731588       4.396825253803      -0.000068548797
        86    1        8.884779876468       5.129630053369       2.072682466537
        87    1       10.154088945310       5.862465985950       4.145389453141
        88    1       11.424999314027       6.596226429445       6.218081266979
        89    1       12.686648818368       7.324640110399       8.295544314989
        90    1       13.962340459291       8.061161022689      10.361542006490
        91    1        8.884804264580       6.595185710655      -0.000101833040
        92    1       10.154143887507       7.328039283645       2.072721091270
        93    1       11.424999314027       8.061205382948       4.146288162343
        94    1       12.708111616355       8.793650499441       6.218049899539
        95    1       13.969580532695       9.521959926029       8.278020019589
        96    1       15.231049449035      10.258629452944      10.361542006490
        97    1       10.154027165390       8.793660546431      -0.000000000000
        98    1       11.422772641844       9.526176591982       2.071856578524
        99    1       12.686648818368      10.262660888483       4.140555484089
       100    1       13.969580532695      10.978578762875       6.218049905312
       101    1       15.231049449035      11.731671277524       8.295544314989
       102    1       16.500801647555      12.457978005381      10.364243220554
       103    1       11.423280323300      10.992067037361      -0.000022574396
       104    1       12.692524840364      11.725451912840       2.071856578524
       105    1       13.962340459291      12.456009162681       4.146288162343
       106    1       15.231049449035      13.188498639433       6.218081266979
       107    1       16.500801647555      13.924161552621       8.290746563119
       108    1       17.769571618187      14.656100024820      10.363427713298
       109    1        7.615524731588       0.000000000000       0.000000000000
       110    1        8.884720967402       0.732709551158       2.072721085497
       111    1       10.154000500394       1.465528439373       4.145445889130
       112    1       11.423287090311       2.198412630984       6.218049899539
       113    1       12.692573680229       2.931296822595       8.290653909948
       114    1       13.961853220292       3.664115698563      10.363378713581
       115    1        8.884720967402       2.198416697137      -0.000101838814
       116    1       10.154033819265       2.931216340527       2.072682951512
       117    1       11.423340123320       3.664089158341       4.145445889130
       118    1       12.694083473415       4.399496532594       6.218049899539
       119    1       13.962340459291       5.131291836200       8.289811636735
       120    1       15.231049449035       5.864214521543      10.360897989585
       121    1       10.154000500394       4.396873345451      -0.000101833040
       122    1       11.423340123320       5.129726918441       2.072721091270
       123    1       12.693708303770       5.863736952693       4.146288162343
       124    1       13.969580532695       6.608722244171       6.218049899539
       125    1       15.231049456106       7.337031658512       8.278020019589
       126    1       16.499758438778       8.061161022689      10.361542006490
       127    1       11.423287090311       6.595237876622       0.000000005774
       128    1       12.694083473415       7.328932510492       2.075201809493
       129    1       13.969580532695       8.065341081017       4.158079785263
       130    1       16.492518372446       9.521959921946       8.278020025362
       131    1       17.768015424654      10.258368488389      10.360897989585
       132    1       12.692573680229       8.793602407792       0.000101844587
       133    1       13.962340459291       9.526139976192       2.074557792588
       134    1       15.231049456106      10.250269340370       4.158079779489
       135    1       16.492518372446      10.978578766958       6.218049899539
       136    1       17.768390594299      11.723564046188       8.289811636735
       137    1       19.038758781820      12.457574084523      10.363378719354
       138    1       13.961853220292      10.992059052024       0.000101838814
       139    1       15.231049449035      11.723086477338       2.075201809493
       140    1       16.499758438778      12.456009162681       4.146288162343
       141    1       17.768015424654      13.187804466287       6.218049899539
       142    1       19.038758781820      13.923211852787       8.290653909948
       143    1       20.308065092946      14.656084658354      10.363416847566
       144    1       10.154044567288       0.000000000000       0.000000000000
       145    1       11.423293857323       0.732824183195       2.072672091553
       146    1       12.692547008161       1.465605067577       4.145357127299
       147    1       13.961769916043       2.198526034194       6.218065135813
       148    1       15.231049456106       2.931281468377       8.290710351711
       149    1       16.500245691919       3.664115698563      10.363378713581
       150    1       11.423293857323       2.198408715883       0.000022568622
       151    1       12.692527294024       2.931200982227       2.072672091553
       152    1       13.961297250515       3.663139446261       4.145353235958
       153    1       15.231049449035       4.398802359449       6.218018532099
       154    1       16.499758438778       5.131291836200       8.289811636735
       155    1       17.769574057705       5.861849086041      10.364243220554
       156    1       12.692547008161       4.396815202730      -0.000000000000
       157    1       13.961297250515       5.129322993500       2.071856578524
       158    1       15.231049449035       5.855629721357       4.140555484089
       159    1       16.492518372446       6.608722240089       6.218049905312
       160    1       17.775450079702       7.324640110399       8.295544314989
       161    1       19.039326256225       8.061124406900      10.364243220554
       162    1       13.961769916043       6.595290042588       0.000101844587
       163    1       15.231049449035       7.328671545937       2.074557792588
       164    1       16.492518372446       8.065341085100       4.158079779489
       165    1       17.753987295857       8.793650499441       6.218049899539
       166    1       19.037099584042       9.526095615933       8.289811636735
       167    1       20.307955017633      10.259261719319      10.363378719354
       168    1       15.231049456106       8.793650503523       0.000068554571
       169    1       16.499758438778       9.526139976192       2.074557792588
       170    1       17.775450079702      10.262660888483       4.140555484089
       171    1       19.037099584042      10.991074569437       6.218018532099
       172    1       20.308009966901      11.724835021096       8.290710351711
       173    1       21.577319028673      12.457670949595      10.363417344087
       174    1       16.500245691919      10.992059052024       0.000101838814
       175    1       17.769574057705      11.725451912840       2.071856578524
       176    1       19.039326256225      12.458543686460       4.145353235958
       177    1       20.307955017633      13.190441064386       6.218065135813
       178    1       21.577319028673      13.923280556892       8.290732360303
       179    1       22.846574180623      14.656085360541      10.363417344087
       180    1       12.692539526972       0.000000000000       0.000000000000
       181    1       13.961794488003       0.732804701587       2.072684677789
       182    1       15.231049456106       1.465584528605       4.145366757502
       183    1       16.500328989098       2.198526030112       6.218065141586
       184    1       17.769525224911       2.931296818513       8.290653915722
       185    1       19.038818588912       3.664001062443      10.363427713298
       186    1       13.961794488003       2.198414088430       0.000000005774
       187    1       15.231049449035       2.931293393310       2.072737436057
       188    1       16.500801647555       3.663139446261       4.145353235958
       189    1       17.768015424654       4.399496532594       6.218049899539
       190    1       19.039326256225       5.128757312421       8.290746563119
       191    1       20.307999629000       5.862471946375      10.363362363021
       192    1       15.231049456106       4.396817435848      -0.000022574396
       193    1       16.500801647555       5.129322993500       2.071856578524
       194    1       17.768390594299       5.863736952693       4.146288162343
       195    1       19.037099584042       6.596226429445       6.218081266979
       196    1       20.309078454745       7.328032633280       8.290746563119
       197    1       21.577340750993       8.060850423307      10.363427713298
       198    1       16.500328989098       6.595290046671       0.000101838814
       199    1       17.768015424654       7.328932510492       2.075201809493
       200    1       19.037099584042       8.061205382948       4.146288162343
       201    1       20.304981400273       8.793650499441       6.218049899539
       202    1       21.577234557697       9.526442835187       8.290653909948
       203    1       22.846574180623      10.259257943022      10.363416847566
       204    1       17.769525224911       8.793602411874       0.000101838814
       205    1       19.039326256225       9.526176591982       2.071856578524
       206    1       20.309078454745      10.259268365601       4.145353235958
       207    1       21.577234557697      10.991984411989       6.218065135813
       208    1       22.846574180623      11.724866145946       8.290732360303
       209    1       24.115829332573      12.457670949595      10.363417344087
       210    1       19.038818588912      10.992067037361      -0.000022574396
       211    1       20.307999629000      11.724829052506       2.072737436057
       212    1       21.577340750993      12.457683490982       4.145366757502
       213    1       22.846574180623      13.190475753243       6.218048866082
       214    1       24.115829332573      13.923280556892       8.290732360303
       215    1       25.385083268300      14.656084658354      10.363416847566
