ITEM: TIMESTEP
0
ITEM: NUMBER OF ATOMS
215
ITEM: BOX BOUNDS xy xz yz pp pp pp
0.0000000000000000e+00 3.0674292160000000e+01 7.6685730400000001e+00
0.0000000000000000e+00 1.7709810839999999e+01 7.6685730400000001e+00
0.0000000000000000e+00 1.2522727339999999e+01 4.4274527099999998e+00
ITEM: ATOMS id type element x y z fx fy fz c_energy
1 1 Cu 0 0 0 1.52501e-08 4.30458e-08 1.28189e-08 -0.378027
2 1 Cu 1.2781 0.737909 2.08712 -9.52849e-09 -6.93109e-08 3.58072e-08 -0.378027
3 1 Cu 25.5619 14.7582 4.17424 8.55132e-05 4.93953e-05 0.00014062 -0.378027
4 1 Cu 19.1714 2.21373 6.26136 -0.00293729 -0.00169592 -0.00416635 -0.378027
5 1 Cu 5.11238 2.95164 8.34848 9.42178e-05 5.44538e-05 0.00017488 -0.378027
6 1 Cu 21.7276 3.68954 10.4356 0.00248956 0.00143725 0.00406525 -0.378027
7 1 Cu 1.2781 2.21373 0 -9.52848e-09 -6.00665e-08 -3.46595e-08 -0.378027
8 1 Cu 17.8933 2.95164 2.08712 0.000657833 -0.000439752 -0.000310912 -0.378027
9 1 Cu 19.1714 3.68954 4.17424 0.00157457 -0.00326364 -0.00143864 -0.378026
10 1 Cu 5.11238 4.42745 6.26136 -0.0230125 0.0373833 0.0114896 -0.377895
11 1 Cu 21.7276 5.16536 8.34848 -0.0305576 0.0290373 -0.00198869 -0.377927
12 1 Cu 23.0057 5.90327 10.4356 0.00338661 -0.00195519 0.000130084 -0.378027
13 1 Cu 17.8933 4.42745 0 -0.00330447 0.000680305 0.00189517 -0.378027
14 1 Cu 19.1714 5.16536 2.08712 -0.00305475 -0.00411716 -0.000716452 -0.378026
15 1 Cu 5.11238 5.90327 4.17424 -0.0263921 0.0291955 0.0333089 -0.377789
16 1 Cu 21.7276 6.64118 6.26136 -0.0835648 0.0461468 0.0296723 -0.376872
17 1 Cu 7.66857 7.37909 8.34848 -0.0371926 0.0113256 -0.00174173 -0.377927
18 1 Cu 24.2838 8.117 10.4356 -0.000854003 -0.00322234 0.00391265 -0.378027
19 1 Cu 19.1714 6.64118 0 0.0295407 -0.00832632 -0.028405 -0.377927
20 1 Cu 5.11238 7.37909 2.08712 -0.00101641 0.00147605 0.00332379 -0.377995
21 1 Cu 21.7276 8.117 4.17424 -0.0388575 0.00835974 0.0312418 -0.37787
22 1 Cu 7.66857 8.85491 6.26136 -0.0427515 0.0018918 0.0110522 -0.377927
23 1 Cu 8.94667 9.59281 8.34848 -0.0101457 0.000253635 0.00380946 -0.378109
24 1 Cu 10.2248 10.3307 10.4356 0.03934 -0.000424143 -0.00747693 -0.377964
25 1 Cu 5.11238 8.85491 0 0.0221104 -0.0216968 -0.0281586 -0.377927
26 1 Cu 21.7276 9.59281 2.08712 0.00177226 0.00402913 -5.23265e-05 -0.378027
27 1 Cu 23.0057 10.3307 4.17424 0.00647108 -0.000525896 -0.00184954 -0.378027
28 1 Cu 8.94667 11.0686 6.26136 -0.0101516 0.00654451 -0.00510978 -0.378109
29 1 Cu 10.2248 11.8065 8.34848 0.0359542 -0.00321401 0.00748163 -0.378068
30 1 Cu 26.84 12.5444 10.4356 0.0746336 -0.0434578 -0.031727 -0.376929
31 1 Cu 21.7276 11.0686 0 -0.00215139 0.00266826 0.00188676 -0.378027
32 1 Cu 7.66857 11.8065 2.08712 4.65989e-08 4.01825e-08 6.68139e-08 -0.378027
33 1 Cu 24.2838 12.5444 4.17424 -0.000836321 -0.000269765 -0.000274262 -0.378027
34 1 Cu 10.2248 13.2824 6.26136 -0.00441869 0.00610897 0.000222633 -0.378064
35 1 Cu 26.84 14.0203 8.34848 0.0297595 -0.0304263 0.00190464 -0.377926
36 1 Cu 12.781 14.7582 10.4356 0.0224387 -0.0340474 -0.0113952 -0.377927
37 1 Cu 2.55619 0 0 5.21758e-08 6.35714e-08 2.73327e-08 -0.378027
38 1 Cu 3.83429 0.737909 2.08712 -5.19943e-05 0.000789507 -0.000310951 -0.378027
39 1 Cu 12.781 14.7582 4.17424 -0.0020391 0.00299543 -0.00143858 -0.378026
40 1 Cu 6.39048 2.21373 6.26136 0.0208686 -0.038621 0.0114895 -0.377895
41 1 Cu 7.66857 2.95164 8.34848 0.00986825 -0.0409823 -0.00198863 -0.377927
42 1 Cu 8.94667 3.68954 10.4356 -4.44625e-08 0.0039104 0.000130037 -0.378027
43 1 Cu 3.83429 2.21373 0 0.0234206 0.0135218 -0.0183015 -0.378027
44 1 Cu 5.11238 2.95164 2.08712 -0.00128457 -0.000741554 0.0036193 -0.378027
45 1 Cu 6.39048 3.68954 4.17424 0.000125862 7.25817e-05 -1.5609e-05 -0.378027
46 1 Cu 7.66857 4.42745 6.26136 0.00311145 0.00179644 -0.0025473 -0.378027
47 1 Cu 8.94667 5.16536 8.34848 -0.000549754 -0.000317439 0.000956079 -0.378027
48 1 Cu 10.2248 5.90327 10.4356 -0.00855632 -0.00493989 0.0030049 -0.378027
49 1 Cu 5.11238 4.42745 0 0.183142 0.0436811 -0.195023 -0.374262
50 1 Cu 6.39048 5.16536 2.08712 0.0184224 -0.00139008 -0.0376128 -0.377927
51 1 Cu 7.66857 5.90327 4.17424 0.00466764 e-08 -0.00357318 -0.00252669 -0.378027
52 1 Cu 8.94667 6.64118 6.26136 0.0403059 0.0113334 -0.0017214 -0.377927
53 1 Cu 10.2248 7.37909 8.34848 0.238239 0.0747495 -0.105712 -0.374263
54 1 Cu 11.5029 8.117 10.4356 0.183855 0.0433504 -0.194522 -0.374263
55 1 Cu 6.39048 6.64118 0 0.010338 -0.0151472 -0.0376786 -0.377927
56 1 Cu 7.66857 7.37909 2.08712 2.89504e-08 5.68231e-08 7.8908e-08 -0.378027
57 1 Cu 8.94667 8.117 4.17424 0.0403059 0.00215482 0.011259 -0.377927
58 1 Cu 10.2248 8.85491 6.26136 -0.146477 6.62437e-08 3.00421e-08 -0.335687
59 1 Cu 11.5029 9.59281 8.34848 -0.38566 0.0861221 0.205719 -0.159859
60 1 Cu 12.781 10.3307 10.4356 -0.0732384 0.0422842 0.119598 -0.335687
61 1 Cu 7.66857 8.85491 0 3.9347e-08 0.00142625 0.00364348 -0.378027
62 1 Cu 8.94667 9.59281 2.08712 -0.0033866 -0.000529111 -0.00188676 -0.378027
63 1 Cu 10.2248 10.3307 4.17424 0.238239 -0.0747494 0.105712 -0.374263
64 1 Cu 11.5029 11.0686 6.26136 -0.38566 0.222661 0.0126238 -0.159859
65 1 Cu 12.781 11.8065 8.34848 -0.267414 0.290931 0.205719 -0.159859
66 1 Cu 14.0591 12.5444 10.4356 0.0543847 -0.180898 -0.194522 -0.374263
67 1 Cu 8.94667 11.0686 0 -4.44626e-08 -7.35691e-08 -2.91461e-08 -0.378027
68 1 Cu 10.2248 11.8065 2.08712 0.0234791 -0.0135556 0.0191707 -0.378027
69 1 Cu 11.5029 12.5444 4.17424 0.183855 -0.168947 0.105712 -0.374263
70 1 Cu 12.781 13.2824 6.26136 -0.0732384 0.126853 1.32487e-08 -0.335687
71 1 Cu 14.0591 14.0203 8.34848 0.0543847 -0.243696 -0.105712 -0.374263
72 1 Cu 15.3371 14.7582 10.4356 4.6068e-08 -0.0271113 -0.0191707 -0.378027
73 1 Cu 5.11238 0 0 -0.00497903 2.8188e-08 2.34094e-09 -0.378027
74 1 Cu 6.39048 0.737909 2.08712 0.00794892 -0.0300149 0.0281409 -0.377927
75 1 Cu 15.3371 14.7582 4.17424 4.42314e-08 -0.0862489 0.0304936 -0.37693
76 1 Cu 8.94667 2.21373 6.26136 -0.010338 -0.0405728 -0.00172141 -0.377927
77 1 Cu 10.2248 2.95164 8.34848 -0.00248955 0.00143736 0.00406541 -0.378027
78 1 Cu 11.5029 3.68954 10.4356 -0.00123505 -0.00319742 0.00188673 -0.378027
79 1 Cu 6.39048 2.21373 0 0.00794892 0.0165265 -0.0376786 -0.377927
80 1 Cu 7.66857 2.95164 2.08712 3.48888e-08 0.00357329 0.00252674 -0.378027
81 1 Cu 8.94667 3.68954 4.17424 -0.00309454 0.00178655 -0.00252674 -0.378027
82 1 Cu 10.2248 4.42745 6.26136 0.029968 0.0292393 -0.00172136 -0.377927
83 1 Cu 11.5029 5.16536 8.34848 0.183855 0.168947 -0.105712 -0.374263
84 1 Cu 12.781 5.90327 10.4356 0.12947 0.137548 -0.194522 -0.374263
85 1 Cu 7.66857 4.42745 0 4.42314e-08 6.86868e-08 -0.0914808 -0.37693
86 1 Cu 8.94667 5.16536 2.08712 -0.00309454 -0.00178668 0.00252669 -0.378027
87 1 Cu 10.2248 5.90327 4.17424 0.0746937 0.0431245 0.0304936 -0.37693
88 1 Cu 11.5029 6.64118 6.26136 -0.38566 -0.222661 -0.0126238 -0.159859
89 1 Cu 12.781 7.37909 8.34848 -0.0329286 -0.0190113 0.0268861 -0.0904051
90 1 Cu 14.0591 8.117 10.4356 -0.118246 -0.0682695 0.424062 -0.159859
91 1 Cu 8.94667 6.64118 0 -0.010338 -0.0151472 -0.0376786 -0.377927
92 1 Cu 10.2248 7.37909 2.08712 0.029968 0.00812355 0.0281409 -0.377927
93 1 Cu 11.5029 8.117 4.17424 -0.38566 -0.0861222 -0.205719 -0.159859
94 1 Cu 12.781 8.85491 6.26136 1.41115 6.31823e-08 2.36268e-08 -0.839872
95 1 Cu 14.0591 9.59281 8.34848 0.705574 -0.407363 -1.1522 -0.839872
96 1 Cu 15.3371 10.3307 10.4356 4.91031e-08 0.136539 0.424062 -0.159859
97 1 Cu 10.2248 8.85491 0 -0.00248955 0.00431199 1.999e-08 -0.378027
98 1 Cu 11.5029 9.59281 2.08712 0.183855 -0.0433505 0.194522 -0.374263
99 1 Cu 12.781 10.3307 4.17424 -0.0329286 0.0190114 -0.0268861 -0.0904051
100 1 Cu 14.0591 11.0686 6.26136 0.705574 -1.22209 -2.47055e-08 -0.839872
101 1 Cu 15.3371 11.8065 8.34848 5.6072e-08 0.0380227 0.0268861 -0.090405
102 1 Cu 16.6152 12.5444 10.4356 -0.0543847 -0.180898 -0.194522 -0.374263
103 1 Cu 11.5029 11.0686 0 -0.00123505 0.000713052 -0.00364346 -0.378027
104 1 Cu 12.781 11.8065 2.08712 0.12947 -0.137548 0.194522 -0.374263
105 1 Cu 14.0591 12.5444 4.17424 -0.118246 0.377053 -0.205719 -0.159859
106 1 Cu 15.3371 13.2824 6.26136 4.91031e-08 0.445322 -0.0126238 -0.159859
107 1 Cu 16.6152 14.0203 8.34848 -0.0543847 -0.243696 -0.105712 -0.374263
108 1 Cu 17.8933 14.7582 10.4356 0.00215139 0.00266837 0.00188675 -0.378027
109 1 Cu 7.66857 0 0 5.44298e-08 8.5414e-08 4.28547e-08 -0.378027
110 1 Cu 8.94667 0.737909 2.08712 -0.0079489 -0.0300149 0.0281409 -0.377927
111 1 Cu 17.8933 14.7582 4.17424 -0.0182869 -0.0359834 0.011259 -0.377927
112 1 Cu 11.5029 2.21373 6.26136 6.13298e-08 -5.4505e-08 -2.15051e-08 -0.378027
113 1 Cu 12.781 2.95164 8.34848 0.0182868 0.0359835 -0.011259 -0.377927
114 1 Cu 14.0591 3.68954 10.4356 0.00794881 0.0300147 -0.0281409 -0.377927
115 1 Cu 8.94667 2.21373 0 -0.0079489 0.0165265 -0.0376786 -0.377927
116 1 Cu 10.2248 2.95164 2.08712 -4.86247e-08 6.20689e-08 8.36588e-08 -0.378027
117 1 Cu 11.5029 3.68954 4.17424 0.0220192 0.0338285 0.011259 -0.377927
118 1 Cu 12.781 4.42745 6.26136 -0.0732384 -0.126853 2.64785e-08 -0.335687
119 1 Cu 14.0591 5.16536 8.34848 -0.118246 -0.377053 0.205719 -0.159859
120 1 Cu 15.3371 5.90327 10.4356 4.67112e-08 -0.0845683 0.119598 -0.335687
121 1 Cu 10.2248 4.42745 0 -0.0182869 -0.00137928 -0.0376785 -0.377927
122 1 Cu 11.5029 5.16536 2.08712 0.0220192 0.0218913 0.0281409 -0.377927
123 1 Cu 12.781 5.90327 4.17424 -0.267414 -0.29093 -0.205719 -0.159859
124 1 Cu 14.0591 6.64118 6.26136 0.705574 1.22209 -2.27383e-08 -0.839872
125 1 Cu 15.3371 7.37909 8.34848 5.69811e-08 0.814726 -1.1522 -0.839872
126 1 Cu 16.6152 8.117 10.4356 0.118246 -0.0682695 0.424062 -0.159859
127 1 Cu 11.5029 6.64118 0 6.13227e-08 -5.50436e-08 -2.07478e-08 -0.378027
128 1 Cu 12.781 7.37909 2.08712 -0.0732384 -0.0422841 -0.119598 -0.335687
129 1 Cu 14.0591 8.117 4.17424 0.705574 0.407363 1.1522 -0.839872
130 1 Cu 16.6152 9.59281 8.34848 -0.705574 -0.407363 -1.1522 -0.839872
131 1 Cu 17.8933 10.3307 10.4356 0.0732383 0.0422842 0.119598 -0.335687
132 1 Cu 12.781 8.85491 0 0.0182868 0.0013794 0.0376786 -0.377927
133 1 Cu 14.0591 9.59281 2.08712 -0.118246 0.0682694 -0.424062 -0.159859
134 1 Cu 15.3371 10.3307 4.17424 5.69812e-08 -0.814726 1.1522 -0.839872
135 1 Cu 16.6152 11.0686 6.26136 -0.705574 -1.22209 -2.14843e-08 -0.839872
136 1 Cu 17.8933 11.8065 8.34848 0.267414 0.290931 0.205719 -0.159859
137 1 Cu 19.1714 12.5444 10.4356 -0.0220191 -0.0218914 -0.0281409 -0.377927
138 1 Cu 14.0591 11.0686 0 0.00794881 -0.0165266 0.0376785 -0.377927
139 1 Cu 15.3371 11.8065 2.08712 4.67112e-08 0.0845685 -0.119598 -0.335687
140 1 Cu 16.6152 12.5444 4.17424 0.118246 0.377053 -0.205719 -0.159859
141 1 Cu 17.8933 13.2824 6.26136 0.0732383 0.126853 2.47407e-08 -0.335687
142 1 Cu 19.1714 14.0203 8.34848 -0.0220191 -0.0338286 -0.011259 -0.377927
143 1 Cu 20.4495 14.7582 10.4356 2.62629e-08 6.32149e-08 -3.02998e-08 -0.378027
144 1 Cu 10.2248 0 0 0.00497894 5.04531e-08 1.80847e-08 -0.378027
145 1 Cu 11.5029 0.737909 2.08712 0.00123517 0.00319731 -0.00188676 -0.378027
146 1 Cu 20.4495 14.7582 4.17424 0.0024895 -0.00143725 -0.00406535 -0.378027
147 1 Cu 14.0591 2.21373 6.26136 0.0103379 0.0405726 0.00172135 -0.377927
148 1 Cu 15.3371 2.95164 8.34848 5.6775e-08 0.086249 -0.0304935 -0.37693
149 1 Cu 16.6152 3.68954 10.4356 -0.00794885 0.0300148 -0.0281409 -0.377927
150 1 Cu 11.5029 2.21373 0 0.00123517 -0.000713151 0.00364342 -0.378027
151 1 Cu 12.781 2.95164 2.08712 -0.00215146 -0.00266826 -0.0018867 -0.378027
152 1 Cu 14.0591 3.68954 4.17424 0.0543847 0.243696 0.105712 -0.374263
153 1 Cu 15.3371 4.42745 6.26136 6.05241e-08 -0.445322 0.0126238 -0.159859
154 1 Cu 16.6152 5.16536 8.34848 0.118246 -0.377053 0.205719 -0.159859
155 1 Cu 17.8933 5.90327 10.4356 -0.12947 0.137548 -0.194522 -0.374263
156 1 Cu 12.781 4.42745 0 0.0024895 -0.00431187 2.26586e-08 -0.378027
157 1 Cu 14.0591 5.16536 2.08712 0.0543847 0.180898 0.194522 -0.374263
158 1 Cu 15.3371 5.90327 4.17424 5.8487e-08 -0.0380226 -0.0268861 -0.090405
159 1 Cu 16.6152 6.64118 6.26136 -0.705574 1.22209 -2.248e-08 -0.839872
160 1 Cu 17.8933 7.37909 8.34848 0.0329285 -0.0190113 0.0268861 -0.090405
161 1 Cu 19.1714 8.117 10.4356 -0.183855 0.0433504 -0.194522 -0.374263
162 1 Cu 14.0591 6.64118 0 0.0103379 0.0151471 0.0376785 -0.377927
163 1 Cu 15.3371 7.37909 2.08712 6.05241e-08 -0.136539 -0.424062 -0.159859
164 1 Cu 16.6152 8.117 4.17424 -0.705574 0.407363 1.1522 -0.839872
165 1 Cu 17.8933 8.85491 6.26136 -1.41115 6.43619e-08 2.44609e-08 -0.839872
166 1 Cu 19.1714 9.59281 8.34848 0.38566 0.0861221 0.205719 -0.159859
167 1 Cu 20.4495 10.3307 10.4356 -0.029968 -0.00812344 -0.0281409 -0.377927
168 1 Cu 15.3371 8.85491 0 5.67751e-08 5.67741e-08 0.0914809 -0.37693
169 1 Cu 16.6152 9.59281 2.08712 0.118246 0.0682694 -0.424062 -0.159859
170 1 Cu 17.8933 10.3307 4.17424 0.0329285 0.0190114 -0.0268861 -0.0904051
171 1 Cu 19.1714 11.0686 6.26136 0.38566 0.222661 0.0126238 -0.159859
172 1 Cu 20.4495 11.8065 8.34848 -0.0746937 -0.0431244 -0.0304935 -0.37693
173 1 Cu 21.7276 12.5444 10.4356 0.00309447 0.00178655 -0.00252675 -0.378027
174 1 Cu 16.6152 11.0686 0 -0.00794885 -0.0165266 0.0376785 -0.377927
175 1 Cu 17.8933 11.8065 2.08712 -0.12947 -0.137548 0.194522 -0.374263
176 1 Cu 19.1714 12.5444 4.17424 -0.183855 -0.168947 0.105712 -0.374263
177 1 Cu 20.4495 13.2824 6.26136 -0.029968 -0.0292392 0.00172141 -0.377927
178 1 Cu 21.7276 14.0203 8.34848 0.00309447 -0.00178669 0.00252669 -0.378027
179 1 Cu 23.0057 14.7582 10.4356 -4.44668e-08 -0.00357317 -0.00252669 -0.378027
180 1 Cu 12.781 0 0 -6.47265e-09 8.18317e-08 4.02446e-08 -0.378027
181 1 Cu 14.0591 0.737909 2.08712 -5.7795e-08 -5.57937e-08 3.24121e-08 -0.378027
182 1 Cu 23.0057 14.7582 4.17424 1.6587e-08 -0.00391041 -0.000130167 -0.378027
183 1 Cu 16.6152 2.21373 6.26136 -0.0103379 0.0405727 0.00172138 -0.377927
184 1 Cu 17.8933 2.95164 8.34848 -0.0182869 0.0359835 -0.011259 -0.377927
185 1 Cu 19.1714 3.68954 10.4356 0.00123512 -0.00319744 0.0018867 -0.378027
186 1 Cu 14.0591 2.21373 0 -5.7795e-08 -5.87617e-08 -2.07836e-08 -0.378027
187 1 Cu 15.3371 2.95164 2.08712 1.70692e-08 0.0271114 0.0191707 -0.378027
188 1 Cu 16.6152 3.68954 4.17424 -0.0543847 0.243696 0.105712 -0.374263
189 1 Cu 17.8933 4.42745 6.26136 0.0732383 -0.126853 2.39683e-08 -0.335687
190 1 Cu 19.1714 5.16536 8.34848 -0.183855 0.168947 -0.105712 -0.374263
191 1 Cu 20.4495 5.90327 10.4356 -0.0234792 0.0135558 -0.0191707 -0.378027
192 1 Cu 15.3371 4.42745 0 1.6587e-08 -0.00142612 -0.00364342 -0.378027
193 1 Cu 16.6152 5.16536 2.08712 -0.0543847 0.180898 0.194522 -0.374263
194 1 Cu 17.8933 5.90327 4.17424 0.267414 -0.29093 -0.205719 -0.159859
195 1 Cu 19.1714 6.64118 6.26136 0.38566 -0.222661 -0.0126238 -0.159859
196 1 Cu 20.4495 7.37909 8.34848 -0.238239 0.0747496 -0.105712 -0.374263
197 1 Cu 21.7276 8.117 10.4356 0.0033865 0.000529015 0.00188671 -0.378027
198 1 Cu 16.6152 6.64118 0 -0.0103379 0.0151471 0.0376785 -0.377927
199 1 Cu 17.8933 7.37909 2.08712 0.0732383 -0.0422841 -0.119598 -0.335687
200 1 Cu 19.1714 8.117 4.17424 0.38566 -0.0861222 -0.205719 -0.159859
201 1 Cu 20.4495 8.85491 6.26136 0.146477 7.38922e-08 3.54504e-08 -0.335687
202 1 Cu 21.7276 9.59281 8.34848 -0.040306 -0.00215491 -0.011259 -0.377927
203 1 Cu 23.0057 10.3307 10.4356 -5.6227e-08 5.81241e-08 -3.69196e-08 -0.378027
204 1 Cu 17.8933 8.85491 0 -0.0182869 0.0013794 0.0376786 -0.377927
205 1 Cu 19.1714 9.59281 2.08712 -0.183855 -0.0433505 0.194522 -0.374263
206 1 Cu 20.4495 10.3307 4.17424 -0.238239 -0.0747494 0.105712 -0.374263
207 1 Cu 21.7276 11.0686 6.26136 -0.040306 -0.0113335 0.00172137 -0.377927
208 1 Cu 23.0057 11.8065 8.34848 -5.69672e-08 0.00357329 0.00252674 -0.378027
209 1 Cu 24.2838 12.5444 10.4356 -0.00309449 0.00178656 -0.00252673 -0.378027
210 1 Cu 19.1714 11.0686 0 0.00123512 0.000713026 -0.00364347 -0.378027
211 1 Cu 20.4495 11.8065 2.08712 -0.0234792 -0.0135556 0.0191707 -0.378027
212 1 Cu 21.7276 12.5444 4.17424 0.0033865 0.00195518 -0.000130197 -0.378027
213 1 Cu 23.0057 13.2824 6.26136 -5.6227e-08 5.528e-08 2.44826e-08 ITEM: TIMESTEP
100
IITEM: TIMESTEP
100
ITEM: NUMBER OF ATOMS
215
ITEM: BOX BOUNDS xy xz yz pp pp pp
0.0000000000000000e+00 3.0674292160000000e+01 7.6685730400000001e+00ITEM: TIMESTEP
100
ITEM: NUMBER OF ATOMS
215
ITEM: BOX BOUNDS xy xz yz pp pp pp
0.0000000000000000e+00 3.0674292160000000e+01 7.6685730400000001e+00
0.0000000000000000e+00 1.7709810839999999e+01 7.6685730400000001e+00
0.0000000000000000e+00 1.2522727339999999e+01 4.4274527099999998e+00
ITEM: ATOMS id type element x y z fx fy fz c_energy
1 1 Cu 2.79065e-09 2.51173e-09 1.38662e-14 1.73017e-12 -3.21548e-12 -4.47642e-13 -0.334268
2 1 Cu 1.27714 0.73736 2.08557 -4.19032e-07 -2.41931e-07 -6.84281e-07 -0.391406
3 1 Cu 25.5631 14.7589 4.1762 4.46388e-07 2.5772e-07 7.28946e-07 -0.425926
4 1 Cu 19.1714 2.21373 6.26136 2.2522e-12 -1.17217e-12 -3.36842e-13 -0.367572
5 1 Cu 5.11118 2.95094 8.34652 -4.46385e-07 -2.57724e-07 -7.28948e-07 -0.425926
6 1 Cu 21.7286 3.69009 10.4372 4.19037e-07 2.41927e-07 6.84279e-07 -0.391406
7 1 Cu 1.27714 2.21208 -4.61195e-12 -4.19031e-07 -7.25789e-07 -8.94507e-13 -0.391406
8 1 Cu 17.882 2.96116 2.09385 7.15333e-07 7.93391e-07 5.61011e-07 -0.441994
9 1 Cu 19.172 3.68684 4.17591 -2.70265e-06 1.17138e-06 -7.52875e-07 -0.348264
10 1 Cu 5.11208 4.42426 6.26162 -1.07475e-06 2.11125e-06 1.90547e-06 -0.348264
11 1 Cu 21.7137 5.1734 8.35102 -3.29429e-07 1.90198e-07 -1.14508e-06 -0.441994
12 1 Cu 23.0057 5.90217 10.4372 3.66018e-12 -4.83861e-07 6.84277e-07 -0.391406
13 1 Cu 17.8945 4.42953 -5.19186e-12 4.46388e-07 7.73162e-07 -2.9865e-13 -0.425926
14 1 Cu 19.172 5.16603 2.08402 -2.70265e-06 -3.19356e-07 1.35535e-06 -0.348264
15 1 Cu 5.11529 5.90159 4.17306 -8.98561e-07 5.18783e-07 3.66836e-07 -0.332541
16 1 Cu 21.7302 6.64304 6.26162 -2.36577e-06 -1.2486e-07 1.90547e-06 -0.348264
17 1 Cu 7.66857 7.38047 8.34652 1.81832e-12 5.1544e-07 -7.28947e-07 -0.425926
18 1 Cu 24.2977 8.11193 10.4289 3.29436e-07 1.01619e-06 -5.61014e-07 -0.441994
19 1 Cu 19.1714 6.64118 2.66537e-14 3.73568e-12 -1.72917e-13 -7.16521e-13 -0.367572
20 1 Cu 5.11208 7.37827 2.08402 -1.07475e-06 2.50024e-06 1.35535e-06 -0.348264
21 1 Cu 21.7302 8.11786 4.17591 -2.36577e-06 1.75487e-06 -7.52875e-07 -0.348264
22 1 Cu 7.66857 8.85491 6.26136 3.2756e-12 -1.80402e-12 -2.92211e-12 -0.367572
23 1 Cu 8.94405 9.59195 8.34682 2.36578e-06 -1.75487e-06 7.52874e-07 -0.348264
24 1 Cu 10.2251 10.3315 10.4387 1.07476e-06 -2.50025e-06 -1.35535e-06 -0.348264
25 1 Cu 5.11118 8.85283 5.22012e-12 -4.46385e-07 -7.73168e-07 -5.80147e-13 -0.425926
26 1 Cu 21.7137 9.59788 2.09385 -3.2943e-07 -1.01619e-06 5.61012e-07 -0.441994
27 1 Cu 23.0057 10.3293 4.1762 1.4504e-12 -5.15446e-07 7.28946e-07 -0.425926
28 1 Cu 8.94405 11.0668 6.26111 2.36578e-06 1.24857e-07 -1.90547e-06 -0.348264
29 1 Cu 10.2219 11.8082 8.34967 8.98564e-07 -5.18788e-07 -3.66837e-07 -0.332541
30 1 Cu 26.8394 12.5438 10.4387 2.70266e-06 3.19353e-07 -1.35535e-06 -0.348264
31 1 Cu 21.7286 11.0703 4.67784e-12 4.19039e-07 7.25788e-07 -1.04161e-12 -0.391406
32 1 Cu 7.66857 11.8076 2.08557 3.40461e-12 4.83857e-07 -6.84283e-07 -0.391406
33 1 Cu 24.2977 12.5364 4.17171 3.29436e-07 -1.90198e-07 1.14508e-06 -0.441994
34 1 Cu 10.2251 13.2856 6.26111 1.07476e-06 -2.11125e-06 -1.90547e-06 -0.348264
35 1 Cu 26.8394 14.023 8.34682 2.70266e-06 -1.17139e-06 7.52873e-07 -0.348264
36 1 Cu 12.7923 14.7487 10.4289 -7.15327e-07 -7.93394e-07 -5.61016e-07 -0.441994
37 1 Cu 2.55429 2.51159e-09 -4.09387e-14 -8.3807e-07 1.4263e-12 1.52134e-12 -0.391406
38 1 Cu 3.83686 0.723318 2.09385 1.04476e-06 2.228e-07 5.61013e-07 -0.441994
39 1 Cu 12.7789 14.76 4.17591 -3.36879e-07 -2.92626e-06 -7.52874e-07 -0.348264
40 1 Cu 6.38756 2.21506 6.26162 1.29102e-06 -1.98639e-06 1.90547e-06 -0.348264
41 1 Cu 7.66857 2.93556 8.35102 -1.80006e-12 -3.80395e-07 -1.14508e-06 -0.441994
42 1 Cu 8.94572 3.69009 10.4372 -4.19038e-07 2.41932e-07 6.8428e-07 -0.391406
43 1 Cu 3.83686 2.21521 -0.0160005 1.04476e-06 6.03196e-07 2.30537e-08 -0.441994
44 1 Cu 5.11023 2.95039 2.08624 -4.03408e-07 -2.32905e-07 -1.64689e-07 -0.388182
45 1 Cu 6.39091 3.68979 4.17389 3.83424e-06 2.2137e-06 -3.13065e-06 -0.370367
46 1 Cu 7.66857279 10.4368 -3.89608e-06 -2.2494e-06 -7.76653e-06 -0.467233
49 1 Cu 5.13388 4.43137 -0.0232498 -4.20091e-06 -5.04984e-06 2.23752e-06 -0.36343
50 1 C.241 5.91266 10.4223 -9.72773e-07 -5.61627e-07 7.94264e-07 -0.407724
49 1 Cu 5.11033 4.42964 0.00117571 -3.36879e-07 -1.68524e-06 -2.50794e-06 -0.348264
50 1 Cu 6.39091 5.16511 2.08747 3.83424e-06 -2.2137e-06 3.13065e-06 -0.370367
51 1 Cu 7.66857 5.90277 4.17389 -8.76965e-13 -4.4274e-06 -3.13065e-06 -0.370367
52 1 Cu 8.94405 6.64304 6.26162 2.36577e-06 -1.24857e-07 1.90547e-06 -0.348264
53 1 Cu 10.2576 7.39353 8.32806 -9.71367e-07 9.06254e-07 -1.28163e-06 -0.327033
54 1 Cu 11.5318 8.12919 10.4088 2.99153e-07 1.63979e-06 7.93116e-07 -0.327033
55 1 Cu 6.38756 6.64187 0.00117571 1.29101e-06 1.13436e-06 -2.50794e-06 -0.348264
56 1 Cu 7.66857 7.38158 2.08624 -2.9089e-12 4.65814e-07 -1.64689e-07 -0.388182
57 1 Cu 8.94405 8.11786 4.17591 2.36577e-06 1.75488e-06 -7.52872e-07 -0.348264
58 1 Cu 10.2419 8.85491 6.26136 -1.7876e-06 1.55653e-12 7.25198e-13 -0.420066
59 1 Cu 11.4967 9.60375 8.3484 -2.26578e-06 4.04241e-08 1.37321e-06 -0.252073
60 1 Cu 12.7895 10.3258 10.4216 -8.938e-07 5.16036e-07 1.45956e-06 -0.420066
61 1 Cu 7.66857 8.85194 -0.0160005 -1.83642e-12 -1.20639e-06 2.30534e-08 -0.441994
62 1 Cu 8.96059 9.59788 2.09385 3.29429e-07 -1.01619e-06 5.61013e-07 -0.441994
63 1 Cu 10.2576 10.3163 4.19467 -9.71366e-07 -9.06251e-07 1.28164e-06 -0.327033
64 1 Cu 11.4967 11.0722 6.2717 -2.26578e-06 1.30815e-06 -4.19625e-07 -0.252073
65 1 Cu 12.7684 11.8064 8.3484 -1.1679e-06 1.94201e-06 1.37321e-06 -0.252073
66 1 Cu 14.063 12.5133 10.4088 -1.27052e-06 -1.07897e-06 7.93117e-07 -0.327033
67 1 Cu 8.94572 11.0703 4.5708e-12 -4.19039e-07 7.25791e-07 2.51321e-12 -0.391406
68 1 Cu 10.241 11.7971 2.10041 -9.72772e-07 5.6163e-07 -7.94262e-07 -0.407724
69 1 Cu 11.5318 12.5232 4.19467 2.99152e-07 1.29435e-06 1.28164e-06 -0.327033
70 1 Cu 12.7895 13.2675 6.26136 -8.938e-07 1.5481e-06 1.1986e-12 -0.420066
71 1 Cu 14.063 13.9846 8.32806 -1.27053e-06 3.88102e-07 -1.28163e-06 -0.327033
72 1 Cu 15.3371 14.7394 10.4223 -3.78675e-12 1.12326e-06 7.94264e-07 -0.407724
73 1 Cu 5.11478 2.51173e-09 3.12926e-14 8.92775e-07 -3.16341e-12 -9.84379e-13 -0.425926
74 1 Cu 6.39134 0.73806 2.08402 -1.62789e-06 -2.18089e-06 1.35535e-06 -0.348264
75 1 Cu 15.3371 14.7615 4.17306 7.32858e-13 -1.03757e-06 3.66836e-07 -0.332541
76 1 Cu 8.94959 2.21506 6.26162 -1.29102e-06 -1.98639e-06 1.90547e-06 -0.348264
77 1 Cu 10.226 2.95094 8.34652 4.46389e-07 -2.57725e-07 -7.28947e-07 -0.425926
78 1 Cu 11.5054 3.70413 10.4289 1.04477e-06 -2.228e-07 -5.61013e-07 -0.441994
79 1 Cu 6.39134 2.21085 0.00117571 -1.62789e-06 5.50874e-07 -2.50795e-06 -0.348264
80 1 Cu 7.66857 2.95213 2.08747 2.29428e-12 4.4274e-06 3.13065e-06 -0.370367
81 1 Cu 8.94624 3.68979 4.17389 -3.83424e-06 2.2137e-06 -3.13065e-06 -0.370367
82 1 Cu 10.2251 4.42426 6.26162 1.07476e-06 2.11125e-06 1.90547e-06 -0.348264
83 1 Cu 11.5318 5.18657 8.32806 2.99159e-07 -1.29435e-06 -1.28164e-06 -0.327033
84 1 Cu 12.806 5.92223 10.4088 1.56968e-06 -5.6082e-07 7.93114e-07 -0.327033
85 1 Cu 7.66857 4.42745 0.00355701 8.74301e-13 -2.85136e-12 -1.10051e-06 -0.332541
86 1 Cu 8.94624 5.16511 2.08747 -3.83424e-06 -2.2137e-06 3.13065e-06 -0.370367
87 1 Cu 10.2219 5.90159 4.17306 8.98563e-07 5.18782e-07 3.66836e-07 -0.332541
88 1 Cu 11.4967 6.63762 6.25102 -2.26577e-06 -1.30815e-06 4.19624e-07 -0.252073
89 1 Cu 12.7895 7.384 8.34154 9.22138e-07 5.32393e-07 -7.52922e-07 -0.0471323
90 1 Cu 14.0654 8.12068 10.4458 -1.09788e-06 -6.33863e-07 2.32679e-06 -0.252073
91 1 Cu 8.94959 6.64187 0.00117571 -1.29101e-06 1.13436e-06 -2.50795e-06 -0.348264
92 1 Cu 10.2251 7.37827 2.08402 1.07476e-06 2.50024e-06 1.35535e-06 -0.348264
93 1 Cu 11.4967 8.10606 4.17433 -2.26577e-06 -4.04226e-08 -1.37321e-06 -0.252073
94 1 Cu 12.8686 8.85491 6.26136 3.43253e-06 -2.7378e-12 -3.47058e-12 -0.716784
95 1 Cu 14.1029 9.56752 8.27695 1.71627e-06 -9.90885e-07 -2.80264e-06 -0.716784
96 1 Cu 15.3371 10.3233 10.4458 3.17069e-12 1.26772e-06 2.32678e-06 -0.252073
97 1 Cu 10.226 8.85283 5.23521e-12 4.46389e-07 -7.73169e-07 -9.29534e-13 -0.425926
98 1 Cu 11.5318 9.58063 2.11393 2.99159e-07 -1.63979e-06 -7.93117e-07 -0.327033
99 1 Cu 12.7895 10.3258 4.18119 9.22137e-07 -5.32398e-07 7.52921e-07 -0.0471323
100 1 Cu 14.1029 10.9928 6.26136 1.71627e-06 -2.97265e-06 -5.18197e-13 -0.716784
101 1 Cu 15.3371 11.7967 8.34154 1.25722e-12 -1.0648e-06 -7.52923e-07 -0.0471323
102 1 Cu 16.6113 12.5133 10.4088 1.27053e-06 -1.07897e-06 7.93116e-07 -0.327033
103 1 Cu 11.5054 11.0671 0.0160005 1.04477e-06 -6.03194e-07 -2.30529e-08 -0.441994
104 1 Cu 12.806 11.7876 2.11393 1.56968e-06 5.60816e-07 -7.93119e-07 -0.327033
105 1 Cu 14.0654 12.5553 4.17433 -1.09788e-06 1.98243e-06 -1.37321e-06 -0.252073
106 1 Cu 15.3371 13.2895 6.25102 2.96907e-12 2.61629e-06 4.19622e-07 -0.252073
107 1 Cu 16.6113 13.9846 8.32806 1.27053e-06 3.881e-07 -1.28164e-06 -0.327033
108 1 Cu 17.882 14.7487 10.4289 7.15334e-07 -7.93395e-07 -5.61016e-07 -0.441994
109 1 Cu 7.66857 2.51157e-09 -3.69841e-14 -1.00996e-12 1.8628e-12 1.33559e-12 -0.367572
110 1 Cu 8.94581 0.73806 2.08402 1.62789e-06 -2.18089e-06 1.35535e-06 -0.348264
111 1 Cu 17.8954 14.76 4.17591 3.36877e-07 -2.92626e-06 -7.52873e-07 -0.348264
112 1 Cu 11.5029 2.21373 6.26136 -3.11333e-12 1.87642e-12 -2.95011e-13 -0.367572
113 1 Cu 12.7789 2.9498 8.34682 -3.36879e-07 2.92626e-06 7.52876e-07 -0.348264
114 1 Cu 14.0599 3.68939 10.4387 -1.6279e-06 2.18089e-06 -1.35535e-06 -0.348264
115 1 Cu 8.94581 2.21085 0.00117571 1.62789e-06 5.50875e-07 -2.50794e-06 -0.348264
116 1 Cu 10.2269 2.95039 2.08624 4.03403e-07 -2.32905e-07 -1.64689e-07 -0.388182
117 1 Cu 11.5023 3.68684 4.17591 2.70265e-06 1.17139e-06 -7.52872e-07 -0.348264
118 1 Cu 12.7895 4.4423 6.26136 -8.93799e-07 -1.5481e-06 6.42975e-13 -0.420066
119 1 Cu 14.0654 5.15455 8.3484 -1.09788e-06 -1.98243e-06 1.37321e-06 -0.252073
120 1 Cu 15.3371 5.91317 10.4216 -2.91996e-12 -1.03207e-06 1.45956e-06 -0.420066
121 1 Cu 10.2268 4.42964 0.00117571 3.36877e-07 -1.68523e-06 -2.50794e-06 -0.348264
122 1 Cu 11.5023 5.16603 2.08402 2.70265e-06 -3.19354e-07 1.35535e-06 -0.348264
123 1 Cu 12.7684 5.9034 4.17433 -1.16789e-06 -1.94201e-06 -1.3732e-06 -0.252073
124 1 Cu 14.1029 6.71706 6.26136 1.71626e-06 2.97266e-06 -1.09797e-12 -0.716784
125 1 Cu 15.3371 7.42967 8.27695 -6.80936e-13 1.98177e-06 -2.80264e-06 -0.716784
126 1 Cu 16.6089 8.12068 10.4458 1.09788e-06 -6.33859e-07 2.32679e-06 -0.252073
127 1 Cu 11.5029 6.64118 -8.33404e-14 -4.8628e-12 1.86583e-12 2.65261e-12 -0.367572
128 1 Cu 12.7895 7.38404 2.10112 -8.93799e-07 -5.16032e-07 -1.45956e-06 -0.420066
129 1 Cu 14.1029 8.14229 4.24578 1.71626e-06 9.90885e-07 2.80265e-06 -0.716784
130 1 Cu 16.5714 9.56752 8.27695 -1.71627e-06 -9.90884e-07 -2.80264e-06 -0.716784
131 1 Cu 17.8848 10.3258 10.4216 8.93793e-07 5.16036e-07 1.45956e-06 -0.420066
132 1 Cu 12.7789 8.85272 -0.00117571 -3.36879e-07 1.68524e-06 2.50795e-06 -0.348264
133 1 Cu 14.0654 9.58913 2.07696 -1.09788e-06 6.33863e-07 -2.32679e-06 -0.252073
134 1 Cu 15.3371 10.2801 4.24578 -1.785e-13 -1.98177e-06 2.80265e-06 -0.716784
135 1 Cu 16.5714 10.9928 6.26136 -1.71627e-06 -2.97265e-06 -1.08316e-12 -0.716784
136 1 Cu 17.9059 11.8064 8.3484 1.16789e-06 1.94201e-06 1.37321e-06 -0.252073
137 1 Cu 19.172 12.5438 10.4387 -2.70266e-06 3.19357e-07 -1.35535e-06 -0.348264
138 1 Cu 14.0599 11.0715 -0.00117571 -1.6279e-06 -5.50872e-07 2.50795e-06 -0.348264
139 1 Cu 15.3371 11.7966 2.10112 -2.67557e-12 1.03207e-06 -1.45956e-06 -0.420066
140 1 Cu 16.6089 12.5553 4.17433 1.09788e-06 1.98243e-06 -1.3732e-06 -0.252073
141 1 Cu 17.8848 13.2675 6.26136 8.93794e-07 1.5481e-06 1.18452e-12 -0.420066
142 1 Cu 19.172 14.023 8.34682 -2.70266e-06 -1.17138e-06 7.52877e-07 -0.348264
143 1 Cu 20.4474 14.7594 10.4365 -4.03409e-07 2.32909e-07 1.64691e-07 -0.388182
144 1 Cu 10.2224 2.51171e-09 1.75689e-14 -8.92772e-07 -2.84367e-12 -7.03548e-13 -0.425926
145 1 Cu 11.5003 0.723318 2.09385 -1.04476e-06 2.22796e-07 5.61013e-07 -0.441994
146 1 Cu 20.4483 14.7589 4.1762 -4.46386e-07 2.57719e-07 7.28946e-07 -0.425926
147 1 Cu 14.0561 2.21239 6.26111 1.29102e-06 1.98639e-06 -1.90547e-06 -0.348264
148 1 Cu 15.3371 2.94828 8.34967 1.45439e-12 1.03757e-06 -3.66837e-07 -0.332541
149 1 Cu 16.6144 3.68939 10.4387 1.6279e-06 2.18089e-06 -1.35535e-06 -0.348264
150 1 Cu 11.5003 2.21521 -0.0160005 -1.04476e-06 6.03194e-07 2.30509e-08 -0.441994
151 1 Cu 12.7923 2.96116 2.09385 -7.15327e-07 7.93391e-07 5.6101e-07 -0.441994
152 1 Cu 14.063 3.7252 4.19467 -1.27052e-06 -3.881e-07 1.28163e-06 -0.327033
153 1 Cu 15.3371 4.42033 6.2717 2.43561e-12 -2.61629e-06 -4.19627e-07 -0.252073
154 1 Cu 16.6089 5.15455 8.3484 1.09788e-06 -1.98243e-06 1.37321e-06 -0.252073
155 1 Cu 17.8683 5.92223 10.4088 -1.56967e-06 -5.6082e-07 7.93114e-07 -0.327033
156 1 Cu 12.7798 4.42953 -5.194e-12 -4.46385e-07 7.73161e-07 -3.78392e-13 -0.425926
157 1 Cu 14.063 5.19651 2.11393 -1.27052e-06 1.07897e-06 -7.93117e-07 -0.327033
158 1 Cu 15.3371 5.91309 4.18119 3.42393e-13 1.06479e-06 7.52921e-07 -0.0471323
159 1 Cu 16.5714 6.71706 6.26136 -1.71626e-06 2.97265e-06 -7.6042e-13 -0.716784
160 1 Cu 17.8848 7.384 8.34154 -9.22136e-07 5.32394e-07 -7.52922e-07 -0.0471323
161 1 Cu 19.1425 8.12919 10.4088 -2.99152e-07 1.63979e-06 7.93116e-07 -0.327033
162 1 Cu 14.0561 6.64049 -0.00117571 1.29102e-06 -1.13436e-06 2.50794e-06 -0.348264
163 1 Cu 15.3371 7.38646 2.07696 2.50305e-12 -1.26772e-06 -2.32679e-06 -0.252073
164 1 Cu 16.5714 8.14229 4.24578 -1.71626e-06 9.90885e-07 2.80265e-06 -0.716784
165 1 Cu 17.8057 8.85491 6.26136 -3.43252e-06 -3.1864e-12 -3.68766e-12 -0.716784
166 1 Cu 19.1776 9.60375 8.3484 2.26578e-06 4.04223e-08 1.37321e-06 -0.252073
167 1 Cu 20.4492 10.3315 10.4387 -1.07475e-06 -2.50025e-06 -1.35535e-06 -0.348264
168 1 Cu 15.3371 8.85491 -0.00355701 1.46338e-12 -3.07071e-12 1.10051e-06 -0.332541
169 1 Cu 16.6089 9.58913 2.07696 1.09788e-06 6.3386e-07 -2.32679e-06 -0.252073