LAMMPS (22 Dec 2022)
Running on 7 partitions of processors
    Step     MaxReplicaForce  MaxAtomForce      GradV0         GradV1         GradVc          EBF            EBR            RDT            RD1            PE1            RD2            PE2            RD3            PE3            RD4            PE4            RD5            PE5            RD6            PE6            RD7            PE7       
         0   6.2285399        3.2600989      5.5545538      6.2285399      5.5709125      0.97568592     0.74207948     2.6633445      0              -79.244223     0.16666667     -79.148374     0.33333333     -78.515455     0.5            -78.268537     0.66666667     -78.650981     0.83333333     -79.245659     1              -79.010616     
       143   8.4678806e-05    3.6442921e-09  1.0402423e-07  2.1112265e-07  0.00019461943  0.65036918     0.65036918     2.8007619      0              -80.152275     0.16672164     -79.943983     0.33342841     -79.636478     0.50010962     -79.501905     0.66676139     -79.637161     0.83338806     -79.944634     1              -80.152275     
Climbing replica = 4
    Step     MaxReplicaForce  MaxAtomForce      GradV0         GradV1         GradVc          EBF            EBR            RDT            RD1            PE1            RD2            PE2            RD3            PE3            RD4            PE4            RD5            PE5            RD6            PE6            RD7            PE7       
       143   0.00019461943    2.1338627e-08  1.0402424e-07  2.1112269e-07  0.00019461943  0.65036918     0.65036918     2.8007619      0              -80.152275     0.16672164     -79.943983     0.33342841     -79.636478     0.50010962     -79.501905     0.66676139     -79.637161     0.83338806     -79.944634     1              -80.152275     
       161   9.8797527e-05    4.9334221e-09  5.9522117e-09  8.0652683e-09  9.8797527e-05  0.6503692      0.6503692      2.8007619      0              -80.152275     0.16669072     -79.94405      0.33336162     -79.636597     0.5000005      -79.501905     0.66669496     -79.637042     0.8333574      -79.944567     1              -80.152275     
