LAMMPS (22 Dec 2022)
Processor partition = 3
units 	metal
dimension 	3
boundary 	p p p
atom_style 	atomic
atom_modify map yes
read_data 	initial_new.lmp
Reading data file ...
  triclinic box = (0 0 0) to (15.337146 13.282358 12.522727) with tilt (7.668573 7.668573 4.4274527)
WARNING: Triclinic box skew is large. LAMMPS will run inefficiently. (../domain.cpp:220)
  1 by 1 by 1 MPI processor grid
  reading atoms ...
  215 atoms
  read_data CPU = 0.001 seconds
include 	potential.inp
#pair_style 	pace
#pair_coeff 	* * copper.yace Cu
pair_style hybrid/overlay pace table linear 6901
ACE version: 2022.6.27
Recursive evaluator is used
pair_coeff * * pace potential.yace Cu
Loading potential.yace
Total number of basis functions
	Cu: 6 (r=1) 23 (r>1)
Mapping LAMMPS atom type #1(Cu) -> ACE species type #0
pair_coeff 1 1 table potential.table Cu_Cu
Reading pair table potential file potential.table with DATE: none
WARNING: 1 of 6901 force values in table Cu_Cu are inconsistent with -dE/dr.
WARNING:  Should only be flagged at inflection points (../pair_table.cpp:466)
#pair_style eam/alloy
#pair_coeff * * Cu.eam.alloy Cu
variable dumptime 	equal 100
variable thermotime 	equal 100
#min_style 	cg

compute energy all pe/atom
dump 1 	all custom ${dumptime} dump.out id type element xsu ysu zsu fx fy fz
dump 1 	all custom 100 dump.out id type element xsu ysu zsu fx fy fz
dump 4 	all custom ${dumptime} dump.cfg id type element x y z fx fy fz c_energy
dump 4 	all custom 100 dump.cfg id type element x y z fx fy fz c_energy
dump 5 	all custom ${dumptime} lmp_dump.xyz id type element x y z fx fy fz c_energy
dump 5 	all custom 100 lmp_dump.xyz id type element x y z fx fy fz c_energy
dump_modify 5 sort id element Cu
dump_modify 4 sort id element Cu
dump_modify 1 sort id format line "%d %d %s %20.15g %20.15g %20.15g %20.15g %20.15g %20.15g %20.15g"
dump_modify 1 element Cu


#dump 2 all custom ${dumptime} dump_e_atom.out id type xsu ysu zsu c_peratom
#dump_modify 2 sort id format line "%d %d %20.15g %20.15g %20.15g %20.15g"

dump 3 all custom 100 dump3_*.out id type x y z
dump_modify 3 sort id

thermo_style 	custom step temp pe etotal pxx pxy pxz pyy pyz pzz vol
thermo_modify 	format float %20.15g
thermo 	${thermotime}
thermo 	100
#fix         br all box/relax x 10. y 10. z 10.
#minimize 	0.0 0.0001 100000 10000000
#unfix		br
fix 1 all neb 1.0
min_style fire
timestep 0.01
neb 0.0 0.0001 10000 5000 500 final coords.final
Neighbor list info ...
  update: every = 1 steps, delay = 0 steps, check = yes
  max neighbors/atom: 2000, page size: 100000
  master list distance cutoff = 9
  ghost atom cutoff = 9
  binsize = 4.5, bins = 7 4 3
  2 neighbor lists, perpetual/occasional/extra = 2 0 0
  (1) pair pace, perpetual
      attributes: full, newton on, cut 7.5
      pair build: full/bin/atomonly
      stencil: full/bin/3d
      bin: standard
  (2) pair table, perpetual
      attributes: half, newton on
      pair build: half/bin/newton/tri
      stencil: half/bin/3d/tri
      bin: standard
  Parameters for fire:
    dmax  delaystep dtgrow dtshrink alpha0 alphashrink tmax tmin   integrator   halfstepback   abcfire  
     0.1     20      1.1     0.5     0.25     0.99      10  0.02 eulerimplicit      yes          no     
Per MPI rank memory allocation (min/avg/max) = 9.537 | 9.537 | 9.537 Mbytes
   Step          Temp          PotEng         TotEng          Pxx            Pxy            Pxz            Pyy            Pyz            Pzz           Volume    
         0                     0    -78.2685367882207    -78.2685367882207    -7071.97011098125     2481.42903014561    -2563.86339894184    -9937.27805842467    -1480.24730798854    -7739.24816119178     2551.04820180899
       100  5.04670616840483e-09    -79.5019056018598    -79.5019056017203    -6542.35159221619     3387.88016055991    -2444.99094693319    -10454.3392602416    -1411.61629012694    -6582.68555894242     2551.04820180899
       143  2.18637445564369e-06    -79.5019054155397     -79.501905355061    -6542.36410684813     3387.87655903613    -2444.99174502212    -10454.3476161924    -1411.61675090406    -6582.70083434572     2551.04820180899
Loop time of 1.50254 on 1 procs for 143 steps with 215 atoms

98.9% CPU use with 1 MPI tasks x no OpenMP threads

Minimization stats:
  Stopping criterion = force tolerance
  Energy initial, next-to-last, final = 
     -78.2685367882207  -79.5019054284552  -79.5019054155397
  Force two-norm initial, final = 5.5701071 8.4678806e-05
  Force max component initial, final = 1.2146305 6.0367972e-05
  Final line search alpha, max atom move = 0 0
  Iterations, force evaluations = 143 152

MPI task timing breakdown:
Section |  min time  |  avg time  |  max time  |%varavg| %total
---------------------------------------------------------------
Pair    | 1.3209     | 1.3209     | 1.3209     |   0.0 | 87.91
Neigh   | 0          | 0          | 0          |   0.0 |  0.00
Comm    | 0.0028     | 0.0028     | 0.0028     |   0.0 |  0.19
Output  | 0.0033428  | 0.0033428  | 0.0033428  |   0.0 |  0.22
Modify  | 0.13301    | 0.13301    | 0.13301    |   0.0 |  8.85
Other   |            | 0.04252    |            |       |  2.83

Nlocal:            215 ave         215 max         215 min
Histogram: 1 0 0 0 0 0 0 0 0 0
Nghost:           3133 ave        3133 max        3133 min
Histogram: 1 0 0 0 0 0 0 0 0 0
Neighs:          26555 ave       26555 max       26555 min
Histogram: 1 0 0 0 0 0 0 0 0 0
FullNghs:        29982 ave       29982 max       29982 min
Histogram: 1 0 0 0 0 0 0 0 0 0

Total # of neighbors = 29982
Ave neighs/atom = 139.45116
Neighbor list builds = 0
Dangerous builds = 0
  Parameters for fire:
    dmax  delaystep dtgrow dtshrink alpha0 alphashrink tmax tmin   integrator   halfstepback   abcfire  
     0.1     20      1.1     0.5     0.25     0.99      10  0.02 eulerimplicit      yes          no     
Per MPI rank memory allocation (min/avg/max) = 9.537 | 9.537 | 9.537 Mbytes
   Step          Temp          PotEng         TotEng          Pxx            Pxy            Pxz            Pyy            Pyz            Pzz           Volume    
       143                     0    -79.5019054155395    -79.5019054155395    -6542.36410684862     3387.87655903609    -2444.99174502205    -10454.3476161926    -1411.61675090427    -6582.70083434568     2551.04820180899
       161  9.69681555778252e-07    -79.5019053993745    -79.5019053725515    -6542.36531362403     3387.87679134308    -2444.99283669729    -10454.3490912135    -1411.61738118281    -6582.70279808017     2551.04820180899
Loop time of 0.227239 on 1 procs for 18 steps with 215 atoms

98.2% CPU use with 1 MPI tasks x no OpenMP threads

Minimization stats:
  Stopping criterion = force tolerance
  Energy initial, next-to-last, final = 
     -79.5019054155395  -79.5019054000881  -79.5019053993745
  Force two-norm initial, final = 0.00019461943 9.8797527e-05
  Force max component initial, final = 0.00014607747 7.0238323e-05
  Final line search alpha, max atom move = 0 0
  Iterations, force evaluations = 18 19

MPI task timing breakdown:
Section |  min time  |  avg time  |  max time  |%varavg| %total
---------------------------------------------------------------
Pair    | 0.17959    | 0.17959    | 0.17959    |   0.0 | 79.03
Neigh   | 0          | 0          | 0          |   0.0 |  0.00
Comm    | 0.00044757 | 0.00044757 | 0.00044757 |   0.0 |  0.20
Output  | 0          | 0          | 0          |   0.0 |  0.00
Modify  | 0.038687   | 0.038687   | 0.038687   |   0.0 | 17.02
Other   |            | 0.008513   |            |       |  3.75

Nlocal:            215 ave         215 max         215 min
Histogram: 1 0 0 0 0 0 0 0 0 0
Nghost:           3133 ave        3133 max        3133 min
Histogram: 1 0 0 0 0 0 0 0 0 0
Neighs:          26547 ave       26547 max       26547 min
Histogram: 1 0 0 0 0 0 0 0 0 0
FullNghs:        30004 ave       30004 max       30004 min
Histogram: 1 0 0 0 0 0 0 0 0 0

Total # of neighbors = 30004
Ave neighs/atom = 139.55349
Neighbor list builds = 0
Dangerous builds = 0
Total wall time: 0:00:01
