LAMMPS (22 Dec 2022)
Processor partition = 6
Reading data file ...
  triclinic box = (0 0 0) to (15.337146 13.282358 12.522727) with tilt (7.668573 7.668573 4.4274527)
WARNING: Triclinic box skew is large. LAMMPS will run inefficiently. (../domain.cpp:220)
  1 by 1 by 1 MPI processor grid
  reading atoms ...
  215 atoms
  read_data CPU = 0.002 seconds
ACE version: 2022.6.27
Recursive evaluator is used
Loading potential.yace
Total number of basis functions
	Cu: 6 (r=1) 23 (r>1)
Mapping LAMMPS atom type #1(Cu) -> ACE species type #0
Reading pair table potential file potential.table with DATE: none
WARNING: 1 of 6901 force values in table Cu_Cu are inconsistent with -dE/dr.
WARNING:  Should only be flagged at inflection points (../pair_table.cpp:466)
Neighbor list info ...
  update: every = 1 steps, delay = 0 steps, check = yes
  max neighbors/atom: 2000, page size: 100000
  master list distance cutoff = 9
  ghost atom cutoff = 9
  binsize = 4.5, bins = 7 4 3
  2 neighbor lists, perpetual/occasional/extra = 2 0 0
  (1) pair pace, perpetual
      attributes: full, newton on, cut 7.5
      pair build: full/bin/atomonly
      stencil: full/bin/3d
      bin: standard
  (2) pair table, perpetual
      attributes: half, newton on
      pair build: half/bin/newton/tri
      stencil: half/bin/3d/tri
      bin: standard
Setting up fire style minimization ...
  Unit style    : metal
  Current step  : 0
  Parameters for fire:
    dmax  delaystep dtgrow dtshrink alpha0 alphashrink tmax tmin   integrator   halfstepback   abcfire  
     0.1     20      1.1     0.5     0.25     0.99      10  0.02 eulerimplicit      yes          no     
Per MPI rank memory allocation (min/avg/max) = 9.537 | 9.537 | 9.537 Mbytes
   Step          Temp          PotEng         TotEng          Pxx            Pxy            Pxz            Pyy            Pyz            Pzz           Volume    
         0                     0    -79.0106162659878    -79.0106162659878    -6982.60788590154      147.48580670321     335.742713517022    -7152.91032171259     193.841049283373    -6804.32990223349     2551.04820180899
       100  2.17369182382507e-09    -80.1522745986513    -80.1522745985912    -7997.55292748277  0.00113333464166519 -0.00143073953060664    -7997.55486312786 -0.00093655159078475    -7997.55370847941     2551.04820180899
       143  5.60904759525034e-13    -80.1522745985716    -80.1522745985716    -7997.55699475685 -2.27409215572062e-05 3.47697013037857e-05    -7997.55759548084 -9.04391532271209e-05    -7997.55776796923     2551.04820180899
Loop time of 1.50254 on 1 procs for 143 steps with 215 atoms

99.4% CPU use with 1 MPI tasks x no OpenMP threads

Minimization stats:
  Stopping criterion = force tolerance
  Energy initial, next-to-last, final = 
     -79.0106162659878  -80.1522745985743  -80.1522745985716
  Force two-norm initial, final = 6.2285399 2.1112265e-07
  Force max component initial, final = 1.8055744 2.6469943e-08
  Final line search alpha, max atom move = 0 0
  Iterations, force evaluations = 143 152

MPI task timing breakdown:
Section |  min time  |  avg time  |  max time  |%varavg| %total
---------------------------------------------------------------
Pair    | 1.3956     | 1.3956     | 1.3956     |   0.0 | 92.88
Neigh   | 0          | 0          | 0          |   0.0 |  0.00
Comm    | 0.0028935  | 0.0028935  | 0.0028935  |   0.0 |  0.19
Output  | 0.003351   | 0.003351   | 0.003351   |   0.0 |  0.22
Modify  | 0.03405    | 0.03405    | 0.03405    |   0.0 |  2.27
Other   |            | 0.06667    |            |       |  4.44

Nlocal:            215 ave         215 max         215 min
Histogram: 1 0 0 0 0 0 0 0 0 0
Nghost:           3133 ave        3133 max        3133 min
Histogram: 1 0 0 0 0 0 0 0 0 0
Neighs:          26536 ave       26536 max       26536 min
Histogram: 1 0 0 0 0 0 0 0 0 0
FullNghs:        29960 ave       29960 max       29960 min
Histogram: 1 0 0 0 0 0 0 0 0 0

Total # of neighbors = 29960
Ave neighs/atom = 139.34884
Neighbor list builds = 0
Dangerous builds = 0
Setting up fire style minimization ...
  Unit style    : metal
  Current step  : 143
  Parameters for fire:
    dmax  delaystep dtgrow dtshrink alpha0 alphashrink tmax tmin   integrator   halfstepback   abcfire  
     0.1     20      1.1     0.5     0.25     0.99      10  0.02 eulerimplicit      yes          no     
Per MPI rank memory allocation (min/avg/max) = 9.537 | 9.537 | 9.537 Mbytes
   Step          Temp          PotEng         TotEng          Pxx            Pxy            Pxz            Pyy            Pyz            Pzz           Volume    
       143                     0    -80.1522745985719    -80.1522745985719    -7997.55699475682 -2.27409553051475e-05 3.47697573300965e-05    -7997.55759548092 -9.04392329485426e-05    -7997.55776797022     2551.04820180899
       161    6.068574609137e-16    -80.1522745985711    -80.1522745985711    -7997.55698044405 1.80827075289286e-06 -2.46645436723716e-06     -7997.5576095157 -0.000111937603014582    -7997.55776742719     2551.04820180899
Loop time of 0.227238 on 1 procs for 18 steps with 215 atoms

99.6% CPU use with 1 MPI tasks x no OpenMP threads

Minimization stats:
  Stopping criterion = force tolerance
  Energy initial, next-to-last, final = 
     -80.1522745985719    -80.15227459857  -80.1522745985711
  Force two-norm initial, final = 2.1112269e-07 8.0652683e-09
  Force max component initial, final = 2.646998e-08 1.0747981e-09
  Final line search alpha, max atom move = 0 0
  Iterations, force evaluations = 18 19

MPI task timing breakdown:
Section |  min time  |  avg time  |  max time  |%varavg| %total
---------------------------------------------------------------
Pair    | 0.17045    | 0.17045    | 0.17045    |   0.0 | 75.01
Neigh   | 0          | 0          | 0          |   0.0 |  0.00
Comm    | 0.00040934 | 0.00040934 | 0.00040934 |   0.0 |  0.18
Output  | 0          | 0          | 0          |   0.0 |  0.00
Modify  | 0.037545   | 0.037545   | 0.037545   |   0.0 | 16.52
Other   |            | 0.01884    |            |       |  8.29

Nlocal:            215 ave         215 max         215 min
Histogram: 1 0 0 0 0 0 0 0 0 0
Nghost:           3133 ave        3133 max        3133 min
Histogram: 1 0 0 0 0 0 0 0 0 0
Neighs:          26536 ave       26536 max       26536 min
Histogram: 1 0 0 0 0 0 0 0 0 0
FullNghs:        29960 ave       29960 max       29960 min
Histogram: 1 0 0 0 0 0 0 0 0 0

Total # of neighbors = 29960
Ave neighs/atom = 139.34884
Neighbor list builds = 0
Dangerous builds = 0
Total wall time: 0:00:01
