LAMMPS (22 Dec 2022)
Processor partition = 9
Reading data file ...
  triclinic box = (0 0 0) to (15.337146 13.282358 12.522727) with tilt (7.668573 7.668573 4.4274527)
WARNING: Triclinic box skew is large. LAMMPS will run inefficiently. (../domain.cpp:220)
  1 by 1 by 1 MPI processor grid
  reading atoms ...
  215 atoms
  read_data CPU = 0.002 seconds
ACE version: 2022.6.27
Recursive evaluator is used
Loading potential.yace
Total number of basis functions
	Cu: 6 (r=1) 23 (r>1)
Mapping LAMMPS atom type #1(Cu) -> ACE species type #0
Reading pair table potential file potential.table with DATE: none
WARNING: 1 of 6901 force values in table Cu_Cu are inconsistent with -dE/dr.
WARNING:  Should only be flagged at inflection points (../pair_table.cpp:466)
Neighbor list info ...
  update: every = 1 steps, delay = 0 steps, check = yes
  max neighbors/atom: 2000, page size: 100000
  master list distance cutoff = 9
  ghost atom cutoff = 9
  binsize = 4.5, bins = 7 4 3
  2 neighbor lists, perpetual/occasional/extra = 2 0 0
  (1) pair pace, perpetual
      attributes: full, newton on, cut 7.5
      pair build: full/bin/atomonly
      stencil: full/bin/3d
      bin: standard
  (2) pair table, perpetual
      attributes: half, newton on
      pair build: half/bin/newton/tri
      stencil: half/bin/3d/tri
      bin: standard
Setting up fire style minimization ...
  Unit style    : metal
  Current step  : 0
  Parameters for fire:
    dmax  delaystep dtgrow dtshrink alpha0 alphashrink tmax tmin   integrator   halfstepback   abcfire  
     0.1     20      1.1     0.5     0.25     0.99      10  0.02 eulerimplicit      yes          no     
Per MPI rank memory allocation (min/avg/max) = 9.537 | 9.537 | 9.537 Mbytes
   Step          Temp          PotEng         TotEng          Pxx            Pxy            Pxz            Pyy            Pyz            Pzz           Volume    
         0                     0    -79.3316528978079    -79.3316528978079    -7238.30877463082    -104.388016158459    -454.231213234369    -7117.77236732628    -262.250596217709    -7361.59496016294     2551.04820180899
       100  1.36464900232876e-05     -80.077808150467    -80.0778077729823    -7531.57595195438      431.03148667485    -637.185874327235    -8029.28886714516    -367.879545605883    -7802.98038242848     2551.04820180899
       200  4.37428515207723e-08    -80.0749345220272    -80.0749345208172    -7522.23334248217     439.216943361752    -654.470652427096    -8029.39800886476    -377.858916871661    -7803.02515878704     2551.04820180899
       298  9.06466547999362e-08    -80.0744466421629    -80.0744466396554     -7520.6475731377     440.598064442801    -657.370819914856    -8029.40702077833    -379.533329354437    -7803.00997301736     2551.04820180899
Loop time of 4.26948 on 1 procs for 298 steps with 215 atoms

99.0% CPU use with 1 MPI tasks x no OpenMP threads

Minimization stats:
  Stopping criterion = force tolerance
  Energy initial, next-to-last, final = 
     -79.3316528978079  -80.0744533884824  -80.0744466421629
  Force two-norm initial, final = 5.1548773 3.1341451e-05
  Force max component initial, final = 1.4167514 1.9590575e-05
  Final line search alpha, max atom move = 0 0
  Iterations, force evaluations = 298 314

MPI task timing breakdown:
Section |  min time  |  avg time  |  max time  |%varavg| %total
---------------------------------------------------------------
Pair    | 3.3554     | 3.3554     | 3.3554     |   0.0 | 78.59
Neigh   | 0          | 0          | 0          |   0.0 |  0.00
Comm    | 0.010293   | 0.010293   | 0.010293   |   0.0 |  0.24
Output  | 0.0090647  | 0.0090647  | 0.0090647  |   0.0 |  0.21
Modify  | 0.85519    | 0.85519    | 0.85519    |   0.0 | 20.03
Other   |            | 0.03951    |            |       |  0.93

Nlocal:            215 ave         215 max         215 min
Histogram: 1 0 0 0 0 0 0 0 0 0
Nghost:           3133 ave        3133 max        3133 min
Histogram: 1 0 0 0 0 0 0 0 0 0
Neighs:          26533 ave       26533 max       26533 min
Histogram: 1 0 0 0 0 0 0 0 0 0
FullNghs:        29960 ave       29960 max       29960 min
Histogram: 1 0 0 0 0 0 0 0 0 0

Total # of neighbors = 29960
Ave neighs/atom = 139.34884
Neighbor list builds = 0
Dangerous builds = 0
Setting up fire style minimization ...
  Unit style    : metal
  Current step  : 298
  Parameters for fire:
    dmax  delaystep dtgrow dtshrink alpha0 alphashrink tmax tmin   integrator   halfstepback   abcfire  
     0.1     20      1.1     0.5     0.25     0.99      10  0.02 eulerimplicit      yes          no     
Per MPI rank memory allocation (min/avg/max) = 9.537 | 9.537 | 9.537 Mbytes
   Step          Temp          PotEng         TotEng          Pxx            Pxy            Pxz            Pyy            Pyz            Pzz           Volume    
       298                     0    -80.0744466421626    -80.0744466421626    -7520.64757313808     440.598064442684    -657.370819915149    -8029.40702077817    -379.533329354385    -7803.00997301747     2551.04820180899
       300  8.23642144202451e-10     -80.074445915153    -80.0744459151302    -7520.64521328789     440.600119497242    -657.375137640204    -8029.40703390108    -379.535822194374    -7803.00995145598     2551.04820180899
       332  4.88017009091664e-09    -80.0742520706052    -80.0742520704702    -7520.02595535449     441.139038802601    -658.517850000705    -8029.41006637493    -380.195567484203    -7803.01258782942     2551.04820180899
Loop time of 0.520903 on 1 procs for 34 steps with 215 atoms

99.8% CPU use with 1 MPI tasks x no OpenMP threads

Minimization stats:
  Stopping criterion = force tolerance
  Energy initial, next-to-last, final = 
     -80.0744466421626  -80.0742523074335  -80.0742520706052
  Force two-norm initial, final = 3.1341451e-05 4.6277489e-05
  Force max component initial, final = 1.9590575e-05 2.1933588e-05
  Final line search alpha, max atom move = 0 0
  Iterations, force evaluations = 34 37

MPI task timing breakdown:
Section |  min time  |  avg time  |  max time  |%varavg| %total
---------------------------------------------------------------
Pair    | 0.50098    | 0.50098    | 0.50098    |   0.0 | 96.17
Neigh   | 0          | 0          | 0          |   0.0 |  0.00
Comm    | 0.0011856  | 0.0011856  | 0.0011856  |   0.0 |  0.23
Output  | 0.0045621  | 0.0045621  | 0.0045621  |   0.0 |  0.88
Modify  | 0.0068966  | 0.0068966  | 0.0068966  |   0.0 |  1.32
Other   |            | 0.007282   |            |       |  1.40

Nlocal:            215 ave         215 max         215 min
Histogram: 1 0 0 0 0 0 0 0 0 0
Nghost:           3133 ave        3133 max        3133 min
Histogram: 1 0 0 0 0 0 0 0 0 0
Neighs:          26536 ave       26536 max       26536 min
Histogram: 1 0 0 0 0 0 0 0 0 0
FullNghs:        29984 ave       29984 max       29984 min
Histogram: 1 0 0 0 0 0 0 0 0 0

Total # of neighbors = 29984
Ave neighs/atom = 139.46047
Neighbor list builds = 0
Dangerous builds = 0
Total wall time: 0:00:04
