 # Cu
 
         215  atoms
           1  atom types
 
      0.000000000000      15.337146083936  xlo xhi
      0.000000000000      13.282358130242  ylo yhi
      0.000000000000      12.522727338723  zlo zhi
      7.668573041968       7.668573041968       4.427452710081  xy xz yz
 
Masses
 
            1   63.54600000             # Cu
 
Atoms # atomic
 
         1    1        0.000000000000       0.000000000000       0.000000000000
         2    1       19.171432604920      12.544449345228      10.435606115602
         3    1       14.059050576942      11.068631775201       0.000000000000
         4    1       15.337146083936      11.806540560215       2.087121223121
         5    1       16.615241590931      12.544449345228       4.174242446241
         6    1       17.893337097926      13.282358130242       6.261363669361
         7    1       19.171432604920      14.020266915255       8.348484892482
         8    1       20.449528111915      14.758175700269      10.435606115602
         9    1       10.224764055957       0.000000000000       0.000000000000
        10    1       11.502859562952       0.737908785013       2.087121223120
        11    1       12.780955069947       1.475817570027       4.174242446241
        12    1       14.059050576942       2.213726355040       6.261363669361
        13    1       15.337146083936       2.951635140054       8.348484892482
        14    1       16.615241590931       3.689543925067      10.435606115602
        15    1       11.502859562952       2.213726355040      -0.000000000000
        16    1       12.780955069947       2.951635140054       2.087121223120
        17    1       14.059050576942       3.689543925067       4.174242446241
        18    1       15.337146083936       4.427452710081       6.261363669361
        19    1       16.615241590931       5.165361495094       8.348484892482
        20    1       17.893337097926       5.903270280107      10.435606115602
        21    1       12.780955069947       4.427452710081       0.000000000000
        22    1       14.059050576942       5.165361495094       2.087121223120
        23    1       15.337146083936       5.903270280107       4.174242446241
        24    1       16.615241590931       6.641179065121       6.261363669361
        25    1       17.893337097926      11.806540560215       8.348484892482
        26    1       17.893337097926       7.379087850134       8.348484892482
        27    1       16.615241590931      11.068631775201       6.261363669361
        28    1       14.059050576942       9.592814205175       2.087121223120
        29    1        8.946668548963       0.737908785013       2.087121223120
        30    1       10.224764055957       1.475817570027       4.174242446241
        31    1       11.502859562952       2.213726355040       6.261363669361
        32    1       12.780955069947       2.951635140054       8.348484892482
        33    1       14.059050576942       3.689543925067      10.435606115602
        34    1        8.946668548963       2.213726355040       0.000000000000
        35    1       10.224764055957       2.951635140054       2.087121223120
        36    1       11.502859562952       3.689543925067       4.174242446241
        37    1       12.780955069947       4.427452710081       6.261363669361
        38    1       14.059050576942       5.165361495094       8.348484892482
        39    1       15.337146083936       5.903270280107      10.435606115602
        40    1       10.224764055957       4.427452710081      -0.000000000000
        41    1       11.502859562952       5.165361495094       2.087121223120
        42    1       12.780955069947       5.903270280107       4.174242446241
        43    1       14.059050576942       6.641179065121       6.261363669361
        44    1       15.337146083936       7.379087850134       8.348484892482
        45    1       16.615241590931       8.116996635148      10.435606115602
        46    1       11.502859562952       6.641179065121       0.000000000000
        47    1       12.780955069947       7.379087850134       2.087121223120
        48    1       14.059050576942       8.116996635148       4.174242446241
        49    1       16.615241590931       9.592814205175       8.348484892482
        50    1       17.893337097926      10.330722990188      10.435606115602
        51    1       12.780955069947       8.854905420161       0.000000000000
        52    1       15.337146083936      10.330722990188       4.174242446241
        53    1        7.668573041968       0.000000000000       0.000000000000
        54    1       19.171432604920       8.116996635148      10.435606115602
        55    1       15.337146083936       7.379087850134       2.087121223120
        56    1       20.449528111915       5.903270280107      10.435606115602
        57    1       15.337146083936       4.427452710081       0.000000000000
        58    1       16.615241590931       5.165361495094       2.087121223120
        59    1       17.893337097926       5.903270280107       4.174242446241
        60    1       19.171432604920       6.641179065121       6.261363669361
        61    1       20.449528111915       7.379087850134       8.348484892482
        62    1       21.727623618910       8.116996635148      10.435606115602
        63    1       16.615241590931       6.641179065121       0.000000000000
        64    1       17.893337097926       7.379087850134       2.087121223121
        65    1       19.171432604920       8.116996635148       4.174242446241
        66    1       20.449528111915       8.854905420161       6.261363669361
        67    1       21.727623618910       9.592814205175       8.348484892482
        68    1       23.005719125904      10.330722990188      10.435606115602
        69    1       17.893337097926       8.854905420161       0.000000000000
        70    1       19.171432604920       9.592814205175       2.087121223120
        71    1       20.449528111915      10.330722990188       4.174242446241
        72    1       21.727623618910      11.068631775201       6.261363669361
        73    1       23.005719125904      11.806540560215       8.348484892482
        74    1       24.283814632899      12.544449345228      10.435606115602
        75    1       19.171432604920      11.068631775201       0.000000000000
        76    1       20.449528111915      11.806540560215       2.087121223121
        77    1       21.727623618910      12.544449345228       4.174242446241
        78    1       23.005719125904      13.282358130242       6.261363669361
        79    1       19.171432604920       5.165361495094       8.348484892482
        80    1       14.059050576942       6.641179065121       0.000000000000
        81    1       17.893337097926       4.427452710081       6.261363669361
        82    1       15.337146083936       2.951635140054       2.087121223120
        83    1       16.615241590931       8.116996635148       4.174242446241
        84    1       17.893337097926       8.854905420161       6.261363669361
        85    1       19.171432604920       9.592814205175       8.348484892482
        86    1       20.449528111915      10.330722990188      10.435606115602
        87    1       15.337146083936       8.854905420161       0.000000000000
        88    1       16.615241590931       9.592814205175       2.087121223120
        89    1       17.893337097926      10.330722990188       4.174242446241
        90    1       19.171432604920      11.068631775201       6.261363669361
        91    1       20.449528111915      11.806540560215       8.348484892482
        92    1       21.727623618910      12.544449345228      10.435606115602
        93    1       16.615241590931      11.068631775201       0.000000000000
        94    1       17.893337097926      11.806540560215       2.087121223120
        95    1       19.171432604920      12.544449345228       4.174242446241
        96    1       20.449528111915      13.282358130242       6.261363669361
        97    1       21.727623618910      14.020266915255       8.348484892482
        98    1       23.005719125904      14.758175700269      10.435606115602
        99    1       12.780955069947       0.000000000000       0.000000000000
       100    1       14.059050576942       0.737908785013       2.087121223120
       101    1       15.337146083936       1.475817570027       4.174242446241
       102    1       16.615241590931       2.213726355040       6.261363669361
       103    1       17.893337097926       2.951635140054       8.348484892482
       104    1       19.171432604920       3.689543925067      10.435606115602
       105    1       14.059050576942       2.213726355040      -0.000000000000
       106    1       16.615241590931       3.689543925067       4.174242446241
       107    1       24.283814632899      14.020266915255       8.348484892482
       108    1       17.893337097926      14.758175700269      10.435606115602
       109    1       15.337146083936      13.282358130242       6.261363669361
       110    1       10.224764055957      11.806540560215       8.348484892482
       111    1       11.502859562952      12.544449345228      10.435606115602
       112    1        6.390477534973      11.068631775201       0.000000000000
       113    1        7.668573041968      11.806540560215       2.087121223120
       114    1        8.946668548963      12.544449345228       4.174242446241
       115    1       10.224764055957      13.282358130242       6.261363669361
       116    1       11.502859562952      14.020266915255       8.348484892482
       117    1       12.780955069947      14.758175700269      10.435606115602
       118    1        2.556191013989       0.000000000000       0.000000000000
       119    1        3.834286520984       0.737908785013       2.087121223120
       120    1        5.112382027979       1.475817570027       4.174242446241
       121    1        6.390477534973       2.213726355040       6.261363669361
       122    1        7.668573041968       2.951635140054       8.348484892482
       123    1        8.946668548963       3.689543925067      10.435606115602
       124    1        3.834286520984       2.213726355040       0.000000000000
       125    1        5.112382027979       2.951635140054       2.087121223120
       126    1        6.390477534973       3.689543925067       4.174242446241
       127    1        7.668573041968       4.427452710081       6.261363669361
       128    1        8.946668548963       5.165361495094       8.348484892482
       129    1       10.224764055957       5.903270280107      10.435606115602
       130    1        5.112382027979       4.427452710081       0.000000000000
       131    1        6.390477534973       5.165361495094       2.087121223120
       132    1        7.668573041968       5.903270280107       4.174242446241
       133    1        8.946668548963      11.068631775201       6.261363669361
       134    1        8.946668548963       6.641179065121       6.261363669361
       135    1        7.668573041968      10.330722990188       4.174242446241
       136    1        5.112382027979       8.854905420161       0.000000000000
       137    1        1.278095506995       0.737908785013       2.087121223120
       138    1        2.556191013989       1.475817570027       4.174242446241
       139    1        3.834286520984       2.213726355040       6.261363669361
       140    1        5.112382027979       2.951635140054       8.348484892482
       141    1        6.390477534973       3.689543925067      10.435606115602
       142    1        1.278095506995       2.213726355040       0.000000000000
       143    1        2.556191013989       2.951635140054       2.087121223120
       144    1        3.834286520984       3.689543925067       4.174242446241
       145    1        5.112382027979       4.427452710081       6.261363669361
       146    1        6.390477534973       5.165361495094       8.348484892482
       147    1        7.668573041968       5.903270280107      10.435606115602
       148    1        2.556191013989       4.427452710081       0.000000000000
       149    1        3.834286520984       5.165361495094       2.087121223120
       150    1        5.112382027979       5.903270280107       4.174242446241
       151    1        6.390477534973       6.641179065121       6.261363669361
       152    1        7.668573041968       7.379087850134       8.348484892482
       153    1        8.946668548963       8.116996635148      10.435606115602
       154    1        3.834286520984       6.641179065121       0.000000000000
       155    1        5.112382027979       7.379087850134       2.087121223120
       156    1        6.390477534973       8.116996635148       4.174242446241
       157    1        7.668573041968       8.854905420161       6.261363669361
       158    1        8.946668548963       9.592814205175       8.348484892482
       159    1       10.224764055957      10.330722990188      10.435606115602
       160    1        6.390477534973       9.592814205175       2.087121223120
       161    1       16.615241590931      14.020266915255       8.348484892482
       162    1       10.224764055957       7.379087850134       8.348484892482
       163    1        6.390477534973       6.641179065121       0.000000000000
       164    1       11.502859562952       5.165361495094       8.348484892482
       165    1       12.780955069947       5.903270280107      10.435606115602
       166    1        7.668573041968       4.427452710081       0.000000000000
       167    1        8.946668548963       5.165361495094       2.087121223120
       168    1       10.224764055957       5.903270280107       4.174242446241
       169    1       11.502859562952       6.641179065121       6.261363669361
       170    1       12.780955069947       7.379087850134       8.348484892482
       171    1       14.059050576942       8.116996635148      10.435606115602
       172    1        8.946668548963       6.641179065121      -0.000000000000
       173    1       10.224764055957       7.379087850134       2.087121223120
       174    1       11.502859562952       8.116996635148       4.174242446241
       175    1       12.780955069947       8.854905420161       6.261363669361
       176    1       14.059050576942       9.592814205175       8.348484892482
       177    1       15.337146083936      10.330722990188      10.435606115602
       178    1       10.224764055957       8.854905420161       0.000000000000
       179    1       11.502859562952       9.592814205175       2.087121223120
       180    1       12.780955069947      10.330722990188       4.174242446241
       181    1       14.059050576942      11.068631775201       6.261363669361
       182    1       15.337146083936      11.806540560215       8.348484892482
       183    1       16.615241590931      12.544449345228      10.435606115602
       184    1       11.502859562952      11.068631775201       0.000000000000
       185    1       12.780955069947      11.806540560215       2.087121223120
       186    1       14.059050576942      12.544449345228       4.174242446241
       187    1       10.224764055957       4.427452710081       6.261363669361
       188    1       11.502859562952       8.116996635148      10.435606115602
       189    1        8.946668548963       3.689543925067       4.174242446241
       190    1        6.390477534973       2.213726355040       0.000000000000
       191    1        7.668573041968       7.379087850134       2.087121223120
       192    1        8.946668548963       8.116996635148       4.174242446241
       193    1       10.224764055957       8.854905420161       6.261363669361
       194    1       11.502859562952       9.592814205175       8.348484892482
       195    1       12.780955069947      10.330722990188      10.435606115602
       196    1        7.668573041968       8.854905420161      -0.000000000000
       197    1        8.946668548963       9.592814205175       2.087121223120
       198    1       10.224764055957      10.330722990188       4.174242446241
       199    1       11.502859562952      11.068631775201       6.261363669361
       200    1       12.780955069947      11.806540560215       8.348484892482
       201    1       14.059050576942      12.544449345228      10.435606115602
       202    1        8.946668548963      11.068631775201      -0.000000000000
       203    1       10.224764055957      11.806540560215       2.087121223120
       204    1       11.502859562952      12.544449345228       4.174242446241
       205    1       12.780955069947      13.282358130242       6.261363669361
       206    1       14.059050576942      14.020266915255       8.348484892482
       207    1       15.337146083936      14.758175700269      10.435606115602
       208    1        5.112382027979       0.000000000000       0.000000000000
       209    1        6.390477534973       0.737908785013       2.087121223120
       210    1        7.668573041968       1.475817570027       4.174242446241
       211    1        8.946668548963       2.213726355040       6.261363669361
       212    1       10.224764055957       2.951635140054       8.348484892482
       213    1       11.502859562952       3.689543925067      10.435606115602
       214    1        7.668573041968       2.951635140054       2.087121223120
       215    1       25.561910139894      14.758175700269      10.435606115602
