ITEM: TIMESTEP
0
ITEM: NUMBER OF ATOMS
215
ITEM: BOX BOUNDS xy xz yz pp pp pp
0.0000000000000000e+00 3.0674292167872000e+01 7.6685730419680000e+00
0.0000000000000000e+00 1.7709810840323001e+01 7.6685730419680000e+00
0.0000000000000000e+00 1.2522727338723000e+01 4.4274527100809999e+00
ITEM: ATOMS id type element x y z fx fy fz c_energy
1 1 Cu 0 0 0 2.1283e-12 -9.75769e-12 -1.01412e-11 -0.378027
2 1 Cu 19.1714 12.5444 10.4356 -0.0220192 -0.0218913 -0.0281409 -0.377927
3 1 Cu 14.0591 11.0686 0 0.00794886 -0.0165265 0.0376785 -0.377927
4 1 Cu 15.3371 11.8065 2.08712 4.91287e-12 0.0845684 -0.119598 -0.335687
5 1 Cu 16.6152 12.5444 4.17424 0.118246 0.377053 -0.205719 -0.159859
6 1 Cu 17.8933 13.2824 6.26136 0.0732384 0.126853 5.36244e-12 -0.335687
7 1 Cu 19.1714 14.0203 8.34848 -0.0220192 -0.0338286 -0.0112591 -0.377927
8 1 Cu 20.4495 14.7582 10.4356 -9.24432e-13 -4.12713e-12 5.37769e-12 -0.378027
9 1 Cu 10.2248 0 0 0.00497899 -8.49798e-12 -8.85736e-12 -0.378027
10 1 Cu 19.1714 14.0203 2.08712 0.0012351 0.00319738 -0.00188679 -0.378027
11 1 Cu 12.781 1.47582 4.17424 0.00248949 -0.00143731 -0.00406533 -0.378027
12 1 Cu 21.7276 15.4961 6.26136 0.010338 0.0405727 0.00172138 -0.377927
13 1 Cu 15.3371 2.95164 8.34848 6.78624e-12 0.086249 -0.0304936 -0.37693
14 1 Cu 24.2838 16.9719 10.4356 -0.00794886 0.0300148 -0.0281409 -0.377927
15 1 Cu 11.5029 2.21373 0 0.0012351 -0.000713088 0.00364345 -0.378027
16 1 Cu 12.781 2.95164 2.08712 -0.00215146 -0.00266832 -0.00188679 -0.378027
17 1 Cu 14.0591 3.68954 4.17424 0.0543847 0.243696 0.105712 -0.374263
18 1 Cu 15.3371 4.42745 6.26136 6.01497e-12 -0.445322 0.0126238 -0.159859
19 1 Cu 16.6152 5.16536 8.34848 0.118246 -0.377053 0.205719 -0.159859
20 1 Cu 17.8933 5.90327 10.4356 -0.12947 0.137548 -0.194522 -0.374263
21 1 Cu 12.781 4.42745 0 0.00248949 -0.00431193 -7.30943e-12 -0.378027
22 1 Cu 14.0591 5.16536 2.08712 0.0543847 0.180898 0.194522 -0.374263
23 1 Cu 15.3371 5.90327 4.17424 5.77949e-12 -0.0380226 -0.0268861 -0.090405
24 1 Cu 16.6152 6.64118 6.26136 -0.705574 1.22209 7.03071e-12 -0.839872
25 1 Cu 17.8933 11.8065 8.34848 0.267414 0.29093 0.205719 -0.159859
26 1 Cu 17.8933 7.37909 8.34848 0.0329286 -0.0190113 0.0268861 -0.090405
27 1 Cu 16.6152 11.0686 6.26136 -0.705574 -1.22209 8.32424e-12 -0.839872
28 1 Cu 14.0591 9.59281 2.08712 -0.118246 0.0682694 -0.424062 -0.159859
29 1 Cu 16.6152 14.0203 2.08712 -0.00794886 -0.0300148 0.0281409 -0.377927
30 1 Cu 10.2248 1.47582 4.17424 -0.0182868 -0.0359834 0.0112591 -0.377927
31 1 Cu 19.1714 15.4961 6.26136 4.10721e-12 7.47555e-12 1.07051e-11 -0.378027
32 1 Cu 12.781 2.95164 8.34848 0.0182868 0.0359834 -0.0112591 -0.377927
33 1 Cu 21.7276 16.9719 10.4356 0.00794886 0.0300148 -0.0281409 -0.377927
34 1 Cu 8.94667 2.21373 0 -0.00794886 0.0165265 -0.0376785 -0.377927
35 1 Cu 10.2248 2.95164 2.08712 5.95591e-12 -3.48015e-12 7.48508e-12 -0.378027
36 1 Cu 11.5029 3.68954 4.17424 0.0220192 0.0338286 0.0112591 -0.377927
37 1 Cu 12.781 4.42745 6.26136 -0.0732384 -0.126853 8.55403e-12 -0.335687
38 1 Cu 14.0591 5.16536 8.34848 -0.118246 -0.377053 0.205719 -0.159859
39 1 Cu 15.3371 5.90327 10.4356 4.98799e-12 -0.0845684 0.119598 -0.335687
40 1 Cu 10.2248 4.42745 0 -0.0182868 -0.00137934 -0.0376785 -0.377927
41 1 Cu 11.5029 5.16536 2.08712 0.0220192 0.0218913 0.0281409 -0.377927
42 1 Cu 12.781 5.90327 4.17424 -0.267414 -0.29093 -0.205719 -0.159859
43 1 Cu 14.0591 6.64118 6.26136 0.705574 1.22209 7.62454e-12 -0.839872
44 1 Cu 15.3371 7.37909 8.34848 6.03129e-12 0.814726 -1.1522 -0.839872
45 1 Cu 16.6152 8.117 10.4356 0.118246 -0.0682694 0.424062 -0.159859
46 1 Cu 11.5029 6.64118 0 4.11762e-12 4.89208e-13 -7.97702e-12 -0.378027
47 1 Cu 12.781 7.37909 2.08712 -0.0732384 -0.0422842 -0.119598 -0.335687
48 1 Cu 14.0591 8.117 4.17424 0.705574 0.407363 1.1522 -0.839872
49 1 Cu 16.6152 9.59281 8.34848 -0.705574 -0.407363 -1.1522 -0.839872
50 1 Cu 17.8933 10.3307 10.4356 0.0732384 0.0422842 0.119598 -0.335687
51 1 Cu 12.781 8.85491 0 0.0182868 0.00137934 0.0376785 -0.377927
52 1 Cu 15.3371 10.3307 4.17424 6.08373e-12 -0.814726 1.1522 -0.839872
53 1 Cu 7.66857 0 0 1.94144e-12 -5.99185e-12 -4.52661e-12 -0.378027
54 1 Cu 19.1714 8.117 10.4356 -0.183855 0.0433504 -0.194522 -0.374263
55 1 Cu 15.3371 7.37909 2.08712 6.12221e-12 -0.136539 -0.424062 -0.159859
56 1 Cu 20.4495 5.90327 10.4356 -0.0234792 0.0135557 -0.0191706 -0.378027
57 1 Cu 15.3371 4.42745 0 2.58024e-12 -0.00142618 -0.00364345 -0.378027
58 1 Cu 16.6152 5.16536 2.08712 -0.0543847 0.180898 0.194522 -0.374263
59 1 Cu 17.8933 5.90327 4.17424 0.267414 -0.29093 -0.205719 -0.159859
60 1 Cu 19.1714 6.64118 6.26136 0.38566 -0.222661 -0.0126238 -0.159859
61 1 Cu 20.4495 7.37909 8.34848 -0.238239 0.0747495 -0.105712 -0.374263
62 1 Cu 21.7276 8.117 10.4356 0.00338656 0.000529056 0.00188679 -0.378027
63 1 Cu 16.6152 6.64118 0 -0.010338 0.0151472 0.0376785 -0.377927
64 1 Cu 17.8933 7.37909 2.08712 0.0732384 -0.0422842 -0.119598 -0.335687
65 1 Cu 19.1714 8.117 4.17424 0.38566 -0.0861222 -0.205719 -0.159859
66 1 Cu 20.4495 8.85491 6.26136 0.146477 1.11355e-12 1.03719e-11 -0.335687
67 1 Cu 21.7276 9.59281 8.34848 -0.040306 -0.00215488 -0.0112591 -0.377927
68 1 Cu 23.0057 10.3307 10.4356 1.59206e-12 6.39599e-13 7.93302e-12 -0.378027
69 1 Cu 17.8933 8.85491 0 -0.0182868 0.00137934 0.0376785 -0.377927
70 1 Cu 19.1714 9.59281 2.08712 -0.183855 -0.0433504 0.194522 -0.374263
71 1 Cu 20.4495 10.3307 4.17424 -0.238239 -0.0747495 0.105712 -0.374263
72 1 Cu 21.7276 11.0686 6.26136 -0.040306 -0.0113334 0.00172138 -0.377927
73 1 Cu 23.0057 11.8065 8.34848 2.46758e-12 0.00357323 0.00252666 -0.378027
74 1 Cu 24.2838 12.5444 10.4356 -0.00309451 0.00178662 -0.00252666 -0.378027
75 1 Cu 19.1714 11.0686 0 0.0012351 0.000713088 -0.00364345 -0.378027
76 1 Cu 20.4495 11.8065 2.08712 -0.0234792 -0.0135557 0.0191706 -0.378027
77 1 Cu 21.7276 12.5444 4.17424 0.00338656 0.00195523 -0.00013013 -0.378027
78 1 Cu 23.0057 13.2824 6.26136 1.61926e-12 -6.4595e-12 5.61989e-12 -0.378027
79 1 Cu 19.1714 5.16536 8.34848 -0.183855 0.168947 -0.105712 -0.374263
80 1 Cu 14.0591 6.64118 0 0.010338 0.0151472 0.0376785 -0.377927
81 1 Cu 17.8933 4.42745 6.26136 0.0732384 -0.126853 7.98955e-12 -0.335687
82 1 Cu 15.3371 2.95164 2.08712 2.38609e-12 0.0271114 0.0191706 -0.378027
83 1 Cu 16.6152 8.117 4.17424 -0.705574 0.407363 1.1522 -0.839872
84 1 Cu 17.8933 8.85491 6.26136 -1.41115 -1.86184e-12 1.02051e-11 -0.839872
85 1 Cu 19.1714 9.59281 8.34848 0.38566 0.0861222 0.205719 -0.159859
86 1 Cu 20.4495 10.3307 10.4356 -0.029968 -0.0081235 -0.0281409 -0.377927
87 1 Cu 15.3371 8.85491 0 6.93334e-12 -2.04281e-12 0.0914808 -0.37693
88 1 Cu 16.6152 9.59281 2.08712 0.118246 0.0682694 -0.424062 -0.159859
89 1 Cu 17.8933 10.3307 4.17424 0.0329286 0.0190113 -0.0268861 -0.090405
90 1 Cu 19.1714 11.0686 6.26136 0.38566 0.222661 0.0126238 -0.159859
91 1 Cu 20.4495 11.8065 8.34848 -0.0746938 -0.0431245 -0.0304936 -0.37693
92 1 Cu 21.7276 12.5444 10.4356 0.00309451 0.00178662 -0.00252666 -0.378027
93 1 Cu 16.6152 11.0686 0 -0.00794886 -0.0165265 0.0376785 -0.377927
94 1 Cu 17.8933 11.8065 2.08712 -0.12947 -0.137548 0.194522 -0.374263
95 1 Cu 19.1714 12.5444 4.17424 -0.183855 -0.168947 0.105712 -0.374263
96 1 Cu 20.4495 13.2824 6.26136 -0.029968 -0.0292393 0.00172138 -0.377927
97 1 Cu 21.7276 14.0203 8.34848 0.00309451 -0.00178662 0.00252666 -0.378027
98 1 Cu 23.0057 14.7582 10.4356 5.80924e-12 -0.00357323 -0.00252666 -0.378027
99 1 Cu 12.781 0 0 -4.2979e-12 -7.89058e-12 -5.86314e-12 -0.378027
100 1 Cu 21.7276 14.0203 2.08712 -4.85101e-12 2.79721e-12 1.01776e-11 -0.378027
101 1 Cu 15.3371 1.47582 4.17424 2.57494e-12 -0.00391046 -0.00013013 -0.378027
102 1 Cu 24.2838 15.4961 6.26136 -0.010338 0.0405727 0.00172138 -0.377927
103 1 Cu 17.8933 2.95164 8.34848 -0.0182868 0.0359834 -0.0112591 -0.377927
104 1 Cu 26.84 16.9719 10.4356 0.0012351 -0.00319738 0.00188679 -0.378027
105 1 Cu 14.0591 2.21373 0 -4.89986e-12 5.34928e-12 -8.63548e-12 -0.378027
106 1 Cu 16.6152 3.68954 4.17424 -0.0543847 0.243696 0.105712 -0.374263
107 1 Cu 24.2838 14.0203 8.34848 -0.00309451 -0.00178662 0.00252666 -0.378027
108 1 Cu 17.8933 14.7582 10.4356 0.00215146 0.00266832 0.00188679 -0.378027
109 1 Cu 15.3371 13.2824 6.26136 5.41672e-12 0.445322 -0.0126238 -0.159859
110 1 Cu 25.5619 11.8065 8.34848 0.0746938 -0.0431245 -0.0304936 -0.37693
111 1 Cu 11.5029 12.5444 10.4356 0.0220192 -0.0218913 -0.0281409 -0.377927
112 1 Cu 6.39048 11.0686 0 4.99234e-12 6.63998e-12 -5.41123e-12 -0.378027
113 1 Cu 7.66857 11.8065 2.08712 9.84102e-13 -1.76203e-12 4.4596e-12 -0.378027
114 1 Cu 8.94667 12.5444 4.17424 -0.00338656 0.00195523 -0.00013013 -0.378027
115 1 Cu 25.5619 13.2824 6.26136 0.029968 -0.0292393 0.00172138 -0.377927
116 1 Cu 11.5029 14.0203 8.34848 0.0220192 -0.0338286 -0.0112591 -0.377927
117 1 Cu 12.781 14.7582 10.4356 -0.00215146 0.00266832 0.00188679 -0.378027
118 1 Cu 2.55619 0 0 5.78093e-12 -7.18459e-12 -8.67539e-12 -0.378027
119 1 Cu 11.5029 14.0203 2.08712 -0.0012351 0.00319738 -0.00188679 -0.378027
120 1 Cu 5.11238 1.47582 4.17424 0.0182868 -0.0359834 0.0112591 -0.377927
121 1 Cu 14.0591 15.4961 6.26136 0.010338 -0.0405727 -0.00172138 -0.377927
122 1 Cu 7.66857 2.95164 8.34848 6.88338e-13 0.00391046 0.00013013 -0.378027
123 1 Cu 16.6152 16.9719 10.4356 -6.30718e-12 -7.16871e-13 1.10616e-11 -0.378027
124 1 Cu 3.83429 2.21373 0 -0.0012351 -0.000713088 0.00364345 -0.378027
125 1 Cu 5.11238 2.95164 2.08712 -5.91033e-12 -3.40183e-12 7.53253e-12 -0.378027
126 1 Cu 6.39048 3.68954 4.17424 0.00309451 0.00178662 -0.00252666 -0.378027
127 1 Cu 7.66857 4.42745 6.26136 -3.78586e-14 -5.91627e-12 8.89377e-12 -0.378027
128 1 Cu 8.94667 5.16536 8.34848 -0.00338656 -0.00195523 0.00013013 -0.378027
129 1 Cu 10.2248 5.90327 10.4356 0.0234792 0.0135557 -0.0191706 -0.378027
130 1 Cu 5.11238 4.42745 0 0.0182868 -0.00137934 -0.0376785 -0.377927
131 1 Cu 6.39048 5.16536 2.08712 0.00309451 -0.00178662 0.00252666 -0.378027
132 1 Cu 7.66857 5.90327 4.17424 3.51733e-13 -0.00357323 -0.00252666 -0.378027
133 1 Cu 8.94667 11.0686 6.26136 0.040306 -0.0113334 0.00172138 -0.377927
134 1 Cu 8.94667 6.64118 6.26136 0.040306 0.0113334 -0.00172138 -0.377927
135 1 Cu 7.66857 10.3307 4.17424 1.84386e-12 0.00287462 -0.00406533 -0.378027
136 1 Cu 5.11238 8.85491 0 0.00248949 0.00431193 -8.79274e-12 -0.378027
137 1 Cu 8.94667 14.0203 2.08712 -1.96909e-12 3.64953e-12 1.11107e-11 -0.378027
138 1 Cu 17.8933 1.47582 4.17424 -0.00248949 -0.00143731 -0.00406533 -0.378027
139 1 Cu 11.5029 15.4961 6.26136 1.38289e-12 3.50164e-12 8.54489e-12 -0.378027
140 1 Cu 5.11238 2.95164 8.34848 0.00248949 0.00143731 0.00406533 -0.378027
141 1 Cu 14.0591 16.9719 10.4356 6.6569e-12 1.26521e-12 1.01553e-11 -0.378027
142 1 Cu 1.2781 2.21373 0 -2.03618e-12 5.82778e-12 -8.28293e-12 -0.378027
143 1 Cu 17.8933 2.95164 2.08712 0.00215146 -0.00266832 -0.00188679 -0.378027
144 1 Cu 3.83429 3.68954 4.17424 -0.0220192 0.0338286 0.0112591 -0.377927
145 1 Cu 5.11238 4.42745 6.26136 -0.029968 0.0292393 -0.00172138 -0.377927
146 1 Cu 21.7276 5.16536 8.34848 0.00338656 -0.00195523 0.00013013 -0.378027
147 1 Cu 7.66857 5.90327 10.4356 8.82849e-13 3.17918e-12 5.74352e-12 -0.378027
148 1 Cu 17.8933 4.42745 0 -0.00248949 -0.00431193 -6.95999e-12 -0.378027
149 1 Cu 3.83429 5.16536 2.08712 -0.0220192 0.0218913 0.0281409 -0.377927
150 1 Cu 5.11238 5.90327 4.17424 -0.0746938 0.0431245 0.0304936 -0.37693
151 1 Cu 21.7276 6.64118 6.26136 -0.040306 0.0113334 -0.00172138 -0.377927
152 1 Cu 7.66857 7.37909 8.34848 1.7395e-12 -0.00287462 0.00406533 -0.378027
153 1 Cu 8.94667 8.117 10.4356 -0.00338656 0.000529056 0.00188679 -0.378027
154 1 Cu 19.1714 6.64118 0 1.35225e-13 -1.79423e-12 -8.63634e-12 -0.378027
155 1 Cu 5.11238 7.37909 2.08712 -0.029968 0.0081235 0.0281409 -0.377927
156 1 Cu 21.7276 8.117 4.17424 -0.040306 0.00215488 0.0112591 -0.377927
157 1 Cu 7.66857 8.85491 6.26136 1.98286e-12 -4.24882e-12 8.6311e-12 -0.378027
158 1 Cu 8.94667 9.59281 8.34848 0.040306 -0.00215488 -0.0112591 -0.377927
159 1 Cu 10.2248 10.3307 10.4356 0.029968 -0.0081235 -0.0281409 -0.377927
160 1 Cu 21.7276 9.59281 2.08712 0.00338656 -0.000529056 -0.00188679 -0.378027
161 1 Cu 16.6152 14.0203 8.34848 -0.0543847 -0.243696 -0.105712 -0.374263
162 1 Cu 10.2248 7.37909 8.34848 0.238239 0.0747495 -0.105712 -0.374263
163 1 Cu 6.39048 6.64118 0 0.010338 -0.0151472 -0.0376785 -0.377927
164 1 Cu 11.5029 5.16536 8.34848 0.183855 0.168947 -0.105712 -0.374263
165 1 Cu 12.781 5.90327 10.4356 0.12947 0.137548 -0.194522 -0.374263
166 1 Cu 7.66857 4.42745 0 1.17867e-12 -4.05723e-12 -0.0914808 -0.37693
167 1 Cu 8.94667 5.16536 2.08712 -0.00309451 -0.00178662 0.00252666 -0.378027
168 1 Cu 10.2248 5.90327 4.17424 0.0746938 0.0431245 0.0304936 -0.37693
169 1 Cu 11.5029 6.64118 6.26136 -0.38566 -0.222661 -0.0126238 -0.159859
170 1 Cu 12.781 7.37909 8.34848 -0.0329286 -0.0190113 0.0268861 -0.090405
171 1 Cu 14.0591 8.117 10.4356 -0.118246 -0.0682694 0.424062 -0.159859
172 1 Cu 8.94667 6.64118 0 -0.010338 -0.0151472 -0.0376785 -0.377927
173 1 Cu 10.2248 7.37909 2.08712 0.029968 0.0081235 0.0281409 -0.377927
174 1 Cu 11.5029 8.117 4.17424 -0.38566 -0.0861222 -0.205719 -0.159859
175 1 Cu 12.781 8.85491 6.26136 1.41115 -1.28275e-12 1.07345e-11 -0.839872
176 1 Cu 14.0591 9.59281 8.34848 0.705574 -0.407363 -1.1522 -0.839872
177 1 Cu 15.3371 10.3307 10.4356 5.35638e-12 0.136539 0.424062 -0.159859
178 1 Cu 10.2248 8.85491 0 -0.00248949 0.00431193 -8.72608e-12 -0.378027
179 1 Cu 11.5029 9.59281 2.08712 0.183855 -0.0433504 0.194522 -0.374263
180 1 Cu 12.781 10.3307 4.17424 -0.0329286 0.0190113 -0.0268861 -0.090405
181 1 Cu 14.0591 11.0686 6.26136 0.705574 -1.22209 8.08013e-12 -0.839872
182 1 Cu 15.3371 11.8065 8.34848 6.45595e-12 0.0380226 0.0268861 -0.090405
183 1 Cu 16.6152 12.5444 10.4356 -0.0543847 -0.180898 -0.194522 -0.374263
184 1 Cu 11.5029 11.0686 0 -0.0012351 0.000713088 -0.00364345 -0.378027
185 1 Cu 12.781 11.8065 2.08712 0.12947 -0.137548 0.194522 -0.374263
186 1 Cu 14.0591 12.5444 4.17424 -0.118246 0.377053 -0.205719 -0.159859
187 1 Cu 10.2248 4.42745 6.26136 0.029968 0.0292393 -0.00172138 -0.377927
188 1 Cu 11.5029 8.117 10.4356 0.183855 0.0433504 -0.194522 -0.374263
189 1 Cu 8.94667 3.68954 4.17424 -0.00309451 0.00178662 -0.00252666 -0.378027
190 1 Cu 6.39048 2.21373 0 0.00794886 0.0165265 -0.0376785 -0.377927
191 1 Cu 7.66857 7.37909 2.08712 -7.358e-14 3.08575e-12 9.33142e-12 -0.378027
192 1 Cu 8.94667 8.117 4.17424 0.040306 0.00215488 0.0112591 -0.377927
193 1 Cu 10.2248 8.85491 6.26136 -0.146477 -1.4867e-12 1.01118e-11 -0.335687
194 1 Cu 11.5029 9.59281 8.34848 -0.38566 0.0861222 0.205719 -0.159859
195 1 Cu 12.781 10.3307 10.4356 -0.0732384 0.0422842 0.119598 -0.335687
196 1 Cu 7.66857 8.85491 0 7.73714e-13 0.00142618 0.00364345 -0.378027
197 1 Cu 8.94667 9.59281 2.08712 -0.00338656 -0.000529056 -0.00188679 -0.378027
198 1 Cu 10.2248 10.3307 4.17424 0.238239 -0.0747495 0.105712 -0.374263
199 1 Cu 11.5029 11.0686 6.26136 -0.38566 0.222661 0.0126238 -0.159859
200 1 Cu 12.781 11.8065 8.34848 -0.267414 0.29093 0.205719 -0.159859
201 1 Cu 14.0591 12.5444 10.4356 0.0543847 -0.180898 -0.194522 -0.374263
202 1 Cu 8.94667 11.0686 0 -5.71376e-12 5.64959e-12 -9.39671e-12 -0.378027
203 1 Cu 10.2248 11.8065 2.08712 0.0234792 -0.0135557 0.0191706 -0.378027
204 1 Cu 11.5029 12.5444 4.17424 0.183855 -0.168947 0.105712 -0.374263
205 1 Cu 12.781 13.2824 6.26136 -0.0732384 0.126853 6.06454e-12 -0.335687
206 1 Cu 14.0591 14.0203 8.34848 0.0543847 -0.243696 -0.105712 -0.374263
207 1 Cu 15.3371 14.7582 10.4356 4.43423e-12 -0.0271114 -0.0191706 -0.378027
208 1 Cu 5.11238 0 0 -0.00497899 -1.06553e-11 -1.07782e-11 -0.378027
209 1 Cu 14.0591 14.0203 2.08712 0.00794886 -0.0300148 0.0281409 -0.377927
210 1 Cu 7.66857 1.47582 4.17424 1.16016e-12 -0.086249 0.0304936 -0.37693
211 1 Cu 16.6152 15.4961 6.26136 -0.010338 -0.0405727 -0.00172138 -0.377927
212 1 Cu 10.2248 2.95164 8.34848 -0.00248949 0.00143731 0.00406533 -0.378027
213 1 Cu 19.1714 16.9719 10.4356 -0.0012351 -0.00319738 0.00188679 -0.378027
214 1 Cu 7.66857 2.95164 2.08712 8.15459e-14 0.00357323 0.00252666 -0.378027
215 1 Cu 25.5619 14.7582 10.4356 -6.72218e-12 -2.5514e-12 4.91474e-12 -0.378027
ITEM: TIMESTEP
100
ITEM: NUMBER OF ATOMS
215
ITEM: BOX BOUNDS xy xz yz pp pp pp
9.2022872132232186e-03 3.0646685306210827e+01 7.6593707547404550e+00
7.9694145119791754e-03 1.7696528482807167e+01 7.6593707547475942e+00
7.5136360521771027e-03 1.2515213702670824e+01 4.4221397670771374e+00
ITEM: ATOMS id type element x y z fx fy fz c_energy
1 1 Cu 0.00920229 0.00796941 0.00751364 1.10889e-12 -2.72493e-12 -1.7582e-12 -0.370109
2 1 Cu 19.1578 12.5374 10.4309 0.0179362 0.0128492 0.0269833 -0.35079
3 1 Cu 14.0515 11.0636 0.00725686 -0.00215969 0.0181208 -0.0296964 -0.35079
4 1 Cu 15.3279 11.8012 2.09093 2.1696e-12 -0.0295545 0.0417963 -0.386475
5 1 Cu 16.607 12.5476 4.17159 0.00396991 0.0888739 -0.0338527 -0.231893
6 1 Cu 17.8818 13.2757 6.26136 -0.0255949 -0.0443317 1.15914e-12 -0.386475
7 1 Cu 19.1578 14.0117 8.34587 0.0179362 0.0297231 0.00311996 -0.35079
8 1 Cu 20.4343 14.7484 10.4306 0.00251321 -0.001451 -0.00102602 -0.382927
9 1 Cu 10.2214 0.00796941 0.00751364 -0.0130906 -2.23288e-12 -1.40088e-12 -0.405324
10 1 Cu 19.1572 14.0102 2.09283 -0.0142526 -0.0457272 0.0248949 -0.391361
11 1 Cu 12.7747 1.4821 4.17698 -0.00654532 0.00377894 0.0106885 -0.405324
12 1 Cu 21.7105 15.4852 6.26143 -0.0146132 -0.0316416 -0.000406803 -0.35079
13 1 Cu 15.3279 2.95773 8.34539 2.09932e-12 -0.00225319 0.000796625 -0.329503
14 1 Cu 24.2638 16.9593 10.4309 0.00215969 -0.0219578 0.0269833 -0.35079
15 1 Cu 11.4978 2.21928 0.00610196 -0.0142526 0.00822877 -0.0514103 -0.391361
16 1 Cu 12.7757 2.95705 2.09283 0.0324746 0.0352068 0.0248949 -0.391361
17 1 Cu 14.0535 3.70233 4.18074 0.0301029 0.146792 0.066929 -0.347757
18 1 Cu 15.3279 4.41844 6.2624 3.09042e-12 -0.091166 0.0273699 -0.231893
19 1 Cu 16.607 5.15692 8.35114 0.00396991 -0.0888739 0.0338527 -0.231893
20 1 Cu 17.8762 5.90938 10.4232 -0.081971 0.0820859 -0.116087 -0.347757
21 1 Cu 12.7747 4.43036 0.00751364 -0.00654532 0.0113368 -1.18533e-12 -0.405324
22 1 Cu 14.0535 5.17398 2.09952 0.0301029 0.112032 0.116087 -0.347757
23 1 Cu 15.3279 5.90304 4.17596 2.66676e-12 -0.00699367 -0.00494527 -0.0952354
24 1 Cu 16.5816 6.68083 6.26136 -0.293313 0.508033 2.68435e-12 -0.817397
25 1 Cu 17.8886 11.8076 8.35114 0.0749821 0.047875 0.0338527 -0.231893
26 1 Cu 17.882 7.37764 8.34677 0.0060567 -0.00349683 0.00494527 -0.0952354
27 1 Cu 16.5816 11.0237 6.26136 -0.293313 -0.508033 1.01654e-12 -0.817397
28 1 Cu 14.0489 9.59073 2.08078 -0.00396991 0.00229203 -0.0950754 -0.231893
29 1 Cu 16.6044 14.0116 2.09182 0.00215969 0.0219578 -0.0269833 -0.35079
30 1 Cu 10.2218 1.48233 4.17686 0.0167729 0.0303947 -0.00311996 -0.35079
31 1 Cu 19.1576 15.4855 6.26136 1.75185e-12 1.85922e-12 1.91353e-12 -0.370137
32 1 Cu 12.7747 2.95575 8.34587 -0.0167729 -0.0303947 0.00311996 -0.35079
33 1 Cu 21.7109 16.9593 10.4309 -0.00215969 -0.0219578 0.0269833 -0.35079
34 1 Cu 8.94503 2.21881 0.00777041 0.00215969 -0.0181208 0.0296964 -0.35079
35 1 Cu 10.2216 2.95611 2.09216 -0.00251321 0.001451 0.00102602 -0.382927
36 1 Cu 11.4981 3.6928 4.17686 -0.0179362 -0.0297231 -0.00311996 -0.35079
37 1 Cu 12.7741 4.42883 6.26136 0.0255949 0.0443317 1.64961e-12 -0.386475
38 1 Cu 14.0489 5.15692 8.35114 -0.00396991 -0.0888739 0.0338527 -0.231893
39 1 Cu 15.3279 5.90331 10.4318 1.90398e-12 0.0295545 -0.0417963 -0.386475
40 1 Cu 10.2218 4.43032 0.00777041 0.0167729 0.00719006 0.0296964 -0.35079
41 1 Cu 11.4981 5.16714 2.09182 -0.0179362 -0.0128492 -0.0269833 -0.35079
42 1 Cu 12.7672 5.89686 4.17159 -0.0749821 -0.047875 -0.0338527 -0.231893
43 1 Cu 14.0743 6.68083 6.26136 0.293313 0.508033 1.93968e-12 -0.817397
44 1 Cu 15.3279 7.40464 8.30859 1.91949e-12 0.338688 -0.478978 -0.817397
45 1 Cu 16.607 8.11377 10.4419 0.00396991 -0.00229203 0.0950754 -0.231893
46 1 Cu 11.4983 6.64118 0.00751364 1.49125e-12 -1.04892e-12 -1.22148e-12 -0.370137
47 1 Cu 12.7741 7.37778 2.09093 0.0255949 0.0147772 0.0417963 -0.386475
48 1 Cu 14.0743 8.12844 4.21413 0.293313 0.169344 0.478978 -0.817397
49 1 Cu 16.5816 9.57605 8.30859 -0.293313 -0.169344 -0.478978 -0.817397
50 1 Cu 17.8818 10.3267 10.4318 -0.0255949 -0.0147772 -0.0417963 -0.386475
51 1 Cu 12.7747 8.85204 0.00725686 -0.0167729 -0.00719006 -0.0296964 -0.35079
52 1 Cu 15.3279 10.2999 4.21413 2.66088e-12 -0.338688 0.478978 -0.817397
53 1 Cu 7.66857 0.00796941 0.00751364 1.16657e-12 -2.01065e-12 -7.12748e-13 -0.370137
54 1 Cu 19.1507 8.11685 10.4232 -0.112074 0.029946 -0.116087 -0.347757
55 1 Cu 15.3279 7.37528 2.08078 2.65155e-12 -0.00458406 -0.0950754 -0.231893
56 1 Cu 20.4325 5.90511 10.4292 -0.0405975 0.023439 -0.0331477 -0.397837
57 1 Cu 15.3279 4.43059 0.00892531 1.56312e-12 0.0164575 0.0514103 -0.391361
58 1 Cu 16.6024 5.17398 2.09952 -0.0301029 0.112032 0.116087 -0.347757
59 1 Cu 17.8886 5.89686 4.17159 0.0749821 -0.047875 -0.0338527 -0.231893
60 1 Cu 19.1677 6.63534 6.26033 0.078952 -0.045583 -0.0273699 -0.231893
61 1 Cu 20.4251 7.38103 8.34199 -0.142177 0.047326 -0.066929 -0.347757
62 1 Cu 21.7095 8.11496 10.4299 -0.0467272 -0.0105204 -0.0248949 -0.391361
63 1 Cu 16.6048 6.64115 0.00725686 0.0146132 -0.0109307 -0.0296964 -0.35079
64 1 Cu 17.8818 7.37778 2.09093 -0.0255949 0.0147772 0.0417963 -0.386475
65 1 Cu 19.1677 8.11231 4.17159 0.078952 -0.0409989 -0.0338527 -0.231893
66 1 Cu 20.4357 8.85225 6.26136 -0.0511898 1.07958e-12 2.19058e-12 -0.386475
67 1 Cu 21.7111 9.5893 8.34587 0.0347091 0.000671592 0.00311996 -0.35079
68 1 Cu 22.9873 10.3264 10.4306 1.61626e-12 0.00290201 -0.00102602 -0.382927
69 1 Cu 17.8812 8.85204 0.00725686 0.0167729 -0.00719006 -0.0296964 -0.35079
70 1 Cu 19.1507 9.58765 2.09952 -0.112074 -0.029946 0.116087 -0.347757
71 1 Cu 20.4251 10.3235 4.18074 -0.142177 -0.047326 0.066929 -0.347757
72 1 Cu 21.7111 11.0632 6.26143 0.0347091 0.00316539 -0.000406803 -0.35079
73 1 Cu 22.9873 11.8 8.34571 1.52006e-12 -0.00838023 -0.00592572 -0.394634
74 1 Cu 24.2642 12.5372 10.4309 0.0072575 -0.00419012 0.00592572 -0.394634
75 1 Cu 19.1572 11.0631 0.00892531 -0.0142526 -0.00822877 0.0514103 -0.391361
76 1 Cu 20.4325 11.7994 2.09348 -0.0405975 -0.023439 0.0331477 -0.397837
77 1 Cu 21.7095 12.5366 4.17673 -0.0467272 -0.026978 -0.00162046 -0.391361
78 1 Cu 22.9873 13.2744 6.26145 1.78024e-12 -1.35725e-12 0.00307805 -0.382927
79 1 Cu 19.1507 5.17356 8.34199 -0.112074 0.0994658 -0.066929 -0.347757
80 1 Cu 14.0511 6.64115 0.00725686 -0.0146132 -0.0109307 -0.0296964 -0.35079
81 1 Cu 17.8818 4.42883 6.26136 -0.0255949 0.0443317 1.72118e-12 -0.386475
82 1 Cu 15.3279 2.95797 2.09348 1.46239e-12 0.0468779 0.0331477 -0.397837
83 1 Cu 16.5816 8.12844 4.21413 -0.293313 0.169344 0.478978 -0.817397
84 1 Cu 17.8353 8.85225 6.26136 -0.586625 1.58107e-12 2.72576e-12 -0.817397
85 1 Cu 19.1677 9.59219 8.35114 0.078952 0.0409989 0.0338527 -0.231893
86 1 Cu 20.4343 10.3265 10.4309 0.0200958 0.00910854 0.0269833 -0.35079
87 1 Cu 15.3279 8.85225 0.00928285 2.31404e-12 2.23543e-13 -0.00238987 -0.329503
88 1 Cu 16.607 9.59073 2.08078 0.00396991 0.00229203 -0.0950754 -0.231893
89 1 Cu 17.882 10.3269 4.17596 0.0060567 0.00349683 -0.00494527 -0.0952354
90 1 Cu 19.1677 11.0692 6.2624 0.078952 0.045583 0.0273699 -0.231893
91 1 Cu 20.4327 11.7995 8.34539 0.00195132 0.0011266 0.000796625 -0.329503
92 1 Cu 21.7104 12.5372 10.4309 -0.0072575 -0.00419012 0.00592572 -0.394634
93 1 Cu 16.6044 11.0636 0.00725686 0.00215969 0.0181208 -0.0296964 -0.35079
94 1 Cu 17.8762 11.7951 2.09952 -0.081971 -0.0820859 0.116087 -0.347757
95 1 Cu 19.1507 12.5309 4.18074 -0.112074 -0.0994658 0.066929 -0.347757
96 1 Cu 20.4343 13.2747 6.26143 0.0200958 0.0284762 -0.000406803 -0.35079
97 1 Cu 21.7104 14.0116 8.34571 -0.0072575 0.00419012 -0.00592572 -0.394634
98 1 Cu 22.9873 14.7488 10.4309 2.09244e-12 0.00838023 0.00592572 -0.394634
99 1 Cu 12.7751 0.00796941 0.00751364 0.00794485 -2.22322e-12 -7.75824e-13 -0.376082
100 1 Cu 21.7109 14.0113 2.0919 0.00397243 -0.00229348 -0.00648695 -0.376082
101 1 Cu 15.3279 1.48351 4.17673 1.46627e-12 0.053956 -0.00162046 -0.391361
102 1 Cu 24.2641 15.4852 6.26143 0.0146132 -0.0316416 -0.000406803 -0.35079
103 1 Cu 17.8812 2.95575 8.34587 0.0167729 -0.0303947 0.00311996 -0.35079
104 1 Cu 26.8166 16.9608 10.4299 -0.0142526 0.0457272 -0.0248949 -0.391361
105 1 Cu 14.0515 2.2188 0.00751364 0.00397243 -0.00688045 -1.53544e-12 -0.376082
106 1 Cu 16.6024 3.70233 4.18074 -0.0301029 0.146792 0.066929 -0.347757
107 1 Cu 24.2642 14.0116 8.34571 0.0072575 0.00419012 -0.00592572 -0.394634
108 1 Cu 17.8802 14.7474 10.4299 -0.0324746 -0.0352068 -0.0248949 -0.391361
109 1 Cu 15.3279 13.2861 6.26033 9.92678e-13 0.091166 -0.0273699 -0.231893
110 1 Cu 25.5419 11.7995 8.34539 -0.00195132 0.0011266 0.000796625 -0.329503
111 1 Cu 11.4981 12.5374 10.4309 -0.0179362 0.0128492 0.0269833 -0.35079
112 1 Cu 6.39215 11.0636 0.00751364 0.00397243 0.00688045 -9.19931e-13 -0.376082
113 1 Cu 7.66857 11.8005 2.0919 7.24976e-13 0.00458696 -0.00648695 -0.376082
114 1 Cu 8.94643 12.5366 4.17673 0.0467272 -0.026978 -0.00162046 -0.391361
115 1 Cu 25.5403 13.2747 6.26143 -0.0200958 0.0284762 -0.000406803 -0.35079
116 1 Cu 11.4981 14.0117 8.34587 -0.0179362 0.0297231 0.00311996 -0.35079
117 1 Cu 12.7757 14.7474 10.4299 0.0324746 -0.0352068 -0.0248949 -0.391361
118 1 Cu 2.56205 0.00796941 0.00751364 -0.00794485 -2.30405e-12 -1.57285e-12 -0.376082
119 1 Cu 11.4987 14.0102 2.09283 0.0142526 -0.0457272 0.0248949 -0.391361
120 1 Cu 5.1153 1.48233 4.17686 -0.0167729 0.0303947 -0.00311996 -0.35079
121 1 Cu 14.0511 15.4857 6.2613 -0.0146132 0.0316416 0.000406803 -0.35079
122 1 Cu 7.66857 2.95457 8.346 8.07243e-13 -0.053956 0.00162046 -0.391361
123 1 Cu 16.6044 16.9596 10.4308 -0.00397243 0.00229348 0.00648695 -0.376082
124 1 Cu 3.8393 2.21928 0.00610196 0.0142526 0.00822877 -0.0514103 -0.391361
125 1 Cu 5.11552 2.95611 2.09216 0.00251321 0.001451 0.00102602 -0.382927
126 1 Cu 6.39169 3.6929 4.17701 -0.0072575 -0.00419012 0.00592572 -0.394634
127 1 Cu 7.66857 4.43011 6.26127 6.08597e-13 -2.27796e-12 -0.00307805 -0.382927
128 1 Cu 8.94643 5.16788 8.346 0.0467272 0.026978 0.00162046 -0.391361
129 1 Cu 10.2233 5.90511 10.4292 0.0405975 0.023439 -0.0331477 -0.397837
130 1 Cu 5.1153 4.43032 0.00777041 -0.0167729 0.00719006 0.0296964 -0.35079
131 1 Cu 6.39169 5.16732 2.09186 -0.0072575 0.00419012 -0.00592572 -0.394634
132 1 Cu 7.66857 5.90453 4.17701 4.02942e-13 0.00838023 0.00592572 -0.394634
133 1 Cu 8.94479 11.0632 6.26143 -0.0347091 0.00316539 -0.000406803 -0.35079
134 1 Cu 8.94479 6.64128 6.2613 -0.0347091 -0.00316539 0.000406803 -0.35079
135 1 Cu 7.66857 10.3261 4.17698 1.10489e-12 -0.00755788 0.0106885 -0.405324
136 1 Cu 5.1153 8.852 0.00751364 -0.00654532 -0.0113368 -1.53921e-12 -0.405324
137 1 Cu 8.94499 14.0113 2.0919 -0.00397243 -0.00229348 -0.00648695 -0.376082
138 1 Cu 17.8812 1.4821 4.17698 0.00654532 0.00377894 0.0106885 -0.405324
139 1 Cu 11.4983 15.4855 6.26136 1.40288e-12 1.1191e-12 1.60483e-12 -0.370137
140 1 Cu 5.1153 2.95598 8.34574 -0.00654532 -0.00377894 -0.0106885 -0.405324
141 1 Cu 14.0515 16.9596 10.4308 0.00397243 0.00229348 0.00648695 -0.376082
142 1 Cu 1.28562 2.2188 0.00751364 -0.00397243 -0.00688045 -1.54676e-12 -0.376082
143 1 Cu 17.8802 2.95705 2.09283 -0.0324746 0.0352068 0.0248949 -0.391361
144 1 Cu 3.83908 3.6928 4.17686 0.0179362 -0.0297231 -0.00311996 -0.35079
145 1 Cu 5.11554 4.42976 6.2613 0.0200958 -0.0284762 0.000406803 -0.35079
146 1 Cu 21.7095 5.16788 8.346 -0.0467272 0.026978 0.00162046 -0.391361
147 1 Cu 7.66857 5.90399 10.4308 8.38218e-13 -0.00458696 0.00648695 -0.376082
148 1 Cu 17.8812 4.43036 0.00751364 0.00654532 0.0113368 -1.26077e-12 -0.405324
149 1 Cu 3.83908 5.16714 2.09182 0.0179362 -0.0128492 -0.0269833 -0.35079
150 1 Cu 5.114 5.90499 4.17734 0.00195132 -0.0011266 -0.000796625 -0.329503
151 1 Cu 21.7111 6.64128 6.2613 0.0347091 -0.00316539 0.000406803 -0.35079
152 1 Cu 7.66857 7.37837 8.34574 1.0405e-12 0.00755788 -0.0106885 -0.405324
153 1 Cu 8.94643 8.11496 10.4299 0.0467272 -0.0105204 -0.0248949 -0.391361
154 1 Cu 19.1576 6.64118 0.00751364 1.04428e-12 -1.69575e-12 -1.48517e-12 -0.370137
155 1 Cu 5.11554 7.37803 2.09182 0.0200958 -0.00910854 -0.0269833 -0.35079
156 1 Cu 21.7111 8.1152 4.17686 0.0347091 -0.000671592 -0.00311996 -0.35079
157 1 Cu 7.66857 8.85225 6.26136 1.02407e-12 -1.81632e-13 1.76165e-12 -0.370137
158 1 Cu 8.94479 9.5893 8.34587 -0.0347091 0.000671592 0.00311996 -0.35079
159 1 Cu 10.2216 10.3265 10.4309 -0.0200958 0.00910854 0.0269833 -0.35079
160 1 Cu 21.7095 9.58954 2.09283 -0.0467272 0.0105204 0.0248949 -0.391361
161 1 Cu 16.6024 14.0022 8.34199 -0.0301029 -0.146792 -0.066929 -0.347757
162 1 Cu 10.2307 7.38103 8.34199 0.142177 0.047326 -0.066929 -0.347757
163 1 Cu 6.39176 6.6412 0.00777041 -0.0146132 0.0109307 0.0296964 -0.35079
164 1 Cu 11.5052 5.17356 8.34199 0.112074 0.0994658 -0.066929 -0.347757
165 1 Cu 12.7797 5.90938 10.4232 0.081971 0.0820859 -0.116087 -0.347757
166 1 Cu 7.66857 4.43011 0.00574443 8.65863e-13 -2.69182e-12 0.00238987 -0.329503
167 1 Cu 8.94546 5.16732 2.09186 0.0072575 0.00419012 -0.00592572 -0.394634
168 1 Cu 10.2231 5.90499 4.17734 -0.00195132 -0.0011266 -0.000796625 -0.329503
169 1 Cu 11.4882 6.63534 6.26033 -0.078952 -0.045583 -0.0273699 -0.231893
170 1 Cu 12.7739 7.37764 8.34677 -0.0060567 -0.00349683 0.00494527 -0.0952354
171 1 Cu 14.0489 8.11377 10.4419 -0.00396991 -0.00229203 0.0950754 -0.231893
172 1 Cu 8.94539 6.6412 0.00777041 0.0146132 0.0109307 0.0296964 -0.35079
173 1 Cu 10.2216 7.37803 2.09182 -0.0200958 -0.00910854 -0.0269833 -0.35079
174 1 Cu 11.4882 8.11231 4.17159 -0.078952 -0.0409989 -0.0338527 -0.231893
175 1 Cu 12.8206 8.85225 6.26136 0.586625 -6.52089e-13 1.59001e-12 -0.817397
176 1 Cu 14.0743 9.57605 8.30859 0.293313 -0.169344 -0.478978 -0.817397
177 1 Cu 15.3279 10.3292 10.4419 1.39991e-12 0.00458406 0.0950754 -0.231893
178 1 Cu 10.2218 8.852 0.00751364 0.00654532 -0.0113368 -1.30213e-12 -0.405324
179 1 Cu 11.5052 9.58765 2.09952 0.112074 -0.029946 0.116087 -0.347757