LAMMPS (22 Dec 2022)
units 	metal
dimension 	3
boundary 	p p p
atom_style 	atomic
read_data 	bulk.lmp
Reading data file ...
  triclinic box = (0 0 0) to (15.337146 13.282358 12.522727) with tilt (7.668573 7.668573 4.4274527)
WARNING: Triclinic box skew is large. LAMMPS will run inefficiently. (../domain.cpp:220)
  1 by 1 by 1 MPI processor grid
  reading atoms ...
  215 atoms
  read_data CPU = 0.002 seconds
include 	potential.inp
#pair_style 	pace
#pair_coeff 	* * copper.yace Cu
pair_style hybrid/overlay pace table linear 6901
ACE version: 2022.6.27
Recursive evaluator is used
pair_coeff * * pace potential.yace Cu
Loading potential.yace
Total number of basis functions
	Cu: 6 (r=1) 23 (r>1)
Mapping LAMMPS atom type #1(Cu) -> ACE species type #0
pair_coeff 1 1 table potential.table Cu_Cu
Reading pair table potential file potential.table with DATE: none
WARNING: 1 of 6901 force values in table Cu_Cu are inconsistent with -dE/dr.
WARNING:  Should only be flagged at inflection points (../pair_table.cpp:466)
#pair_style eam/alloy
#pair_coeff * * Cu.eam.alloy Cu
variable dumptime 	equal 100
variable thermotime 	equal 100
min_style 	cg

compute energy all pe/atom
dump 1 	all custom ${dumptime} dump.out id type element xsu ysu zsu fx fy fz
dump 1 	all custom 100 dump.out id type element xsu ysu zsu fx fy fz
dump 4 	all custom ${dumptime} dump.cfg id type element x y z fx fy fz c_energy
dump 4 	all custom 100 dump.cfg id type element x y z fx fy fz c_energy
dump 5 	all custom ${dumptime} lmp_dump.xyz id type element x y z fx fy fz c_energy
dump 5 	all custom 100 lmp_dump.xyz id type element x y z fx fy fz c_energy
dump_modify 5 sort id element Cu
dump_modify 4 sort id element Cu
dump_modify 1 sort id format line "%d %d %s %20.15g %20.15g %20.15g %20.15g %20.15g %20.15g %20.15g"
dump_modify 1 element Cu


#dump 2 all custom ${dumptime} dump_e_atom.out id type xsu ysu zsu c_peratom
#dump_modify 2 sort id format line "%d %d %20.15g %20.15g %20.15g %20.15g"

dump 3 all custom 100 dump3_*.out id type x y z
dump_modify 3 sort id

thermo_style 	custom step temp pe etotal pxx pxy pxz pyy pyz pzz vol
thermo_modify 	format float %20.15g
thermo 	${thermotime}
thermo 	100
fix         br all box/relax x 10. y 10. z 10.
minimize 	0.0 0.0001 100000 10000000
Neighbor list info ...
  update: every = 1 steps, delay = 0 steps, check = yes
  max neighbors/atom: 2000, page size: 100000
  master list distance cutoff = 9
  ghost atom cutoff = 9
  binsize = 4.5, bins = 7 4 3
  2 neighbor lists, perpetual/occasional/extra = 2 0 0
  (1) pair pace, perpetual
      attributes: full, newton on, cut 7.5
      pair build: full/bin/atomonly
      stencil: full/bin/3d
      bin: standard
  (2) pair table, perpetual
      attributes: half, newton on
      pair build: half/bin/newton/tri
      stencil: half/bin/3d/tri
      bin: standard
WARNING: Energy due to 3 extra global DOFs will be included in minimizer energies
 (../min.cpp:225)
Per MPI rank memory allocation (min/avg/max) = 10.64 | 10.64 | 10.64 Mbytes
   Step          Temp          PotEng         TotEng          Pxx            Pxy            Pxz            Pyy            Pyz            Pzz           Volume    
         0                     0    -79.2442226735871    -79.2442226735871    -7156.40317300222 -7.26295439767232e-10 -9.27615157368859e-10    -7156.40317311389 -6.22310903233319e-08    -7156.40317305425     2551.04820225001
       100                     0    -79.9499618439252    -79.9499618439252    -181.090190381378 1.37547089808485e-06 -1.80698347085187e-07    -181.090185725218 2.56929644384845e-07    -181.090188047527     2541.87544527001
       200                     0    -80.1088699559213    -80.1088699559213    -305.908727147151  3.1651923726305e-08 -4.42573749970193e-09    -305.908727147144 -5.43291835712404e-08    -305.908727147088     2541.87544530899
       300                     0    -80.1758026846603    -80.1758026846603      10.171237878072  -0.0560861031380597 -0.000459340133504668     9.96645796600777  -0.0181799800299323     10.0525038116212     2541.65666019621
       316                     0     -80.175802702648     -80.175802702648      10.003582039691  0.00747170067643541 -0.000228430746444047     10.0304898315657  0.00222393915622558     10.0185962168297     2541.65669970777
Loop time of 3.45773 on 1 procs for 316 steps with 215 atoms

99.8% CPU use with 1 MPI tasks x no OpenMP threads

Minimization stats:
  Stopping criterion = force tolerance
  Energy initial, next-to-last, final = 
     -79.2442226735871  -80.1758613197911  -80.1758613198013
  Force two-norm initial, final = 20.5295 6.1504352e-05
  Force max component initial, final = 11.410628 4.8427883e-05
  Final line search alpha, max atom move = 0.91509304 4.4316019e-05
  Iterations, force evaluations = 316 407

MPI task timing breakdown:
Section |  min time  |  avg time  |  max time  |%varavg| %total
---------------------------------------------------------------
Pair    | 3.4197     | 3.4197     | 3.4197     |   0.0 | 98.90
Neigh   | 0          | 0          | 0          |   0.0 |  0.00
Comm    | 0.0058897  | 0.0058897  | 0.0058897  |   0.0 |  0.17
Output  | 0.0095049  | 0.0095049  | 0.0095049  |   0.0 |  0.27
Modify  | 0          | 0          | 0          |   0.0 |  0.00
Other   |            | 0.02264    |            |       |  0.65

Nlocal:            215 ave         215 max         215 min
Histogram: 1 0 0 0 0 0 0 0 0 0
Nghost:           3133 ave        3133 max        3133 min
Histogram: 1 0 0 0 0 0 0 0 0 0
Neighs:          26536 ave       26536 max       26536 min
Histogram: 1 0 0 0 0 0 0 0 0 0
FullNghs:        29960 ave       29960 max       29960 min
Histogram: 1 0 0 0 0 0 0 0 0 0

Total # of neighbors = 29960
Ave neighs/atom = 139.34884
Neighbor list builds = 0
Dangerous builds = 0
unfix		br

Total wall time: 0:00:03
