215
Lattice="0.0 10.769978352079763 10.769978352079763 10.769978352079763 0.0 10.769978352079763 10.769978352079763 10.769978352079763 0.0" Properties=species:S:1:pos:R:3:forces:R:3:energies:R:1 config_type=bulk_vac_images energy=-0.28772583451888956 free_energy=-0.28772583451888956 pbc="T T T"
Cu       0.00000000       0.00000000      -0.00000000      -0.00000000      -0.00000000      -0.00000000      -0.00701617
Cu       1.79499759       1.79499759       0.00000000       0.00003443       0.00003443      -0.00000000      -0.00710759
Cu       3.58998458       3.58998458       0.00000000      -0.00009880      -0.00009880      -0.00000000      -0.00673790
Cu       5.38498918       5.38498918       0.00000000      -0.00000000       0.00000000       0.00000000      -0.00737208
Cu       7.17999377       7.17999377       0.00000000       0.00009880       0.00009880      -0.00000000      -0.00673790
Cu       8.97498077       8.97498077      -0.00000000      -0.00003443      -0.00003443       0.00000000      -0.00710759
Cu       1.79499759       0.00000000       1.79499759       0.00003443      -0.00000000       0.00003443      -0.00710759
Cu       3.58997337       1.79500623       1.79500623      -0.00132494       0.00073327       0.00073327      -0.00695050
Cu       5.38509057       3.58997326       1.79494092       0.00390590      -0.00167133      -0.00110747      -0.00706174
Cu       7.18000510       5.38488779       1.79494092       0.00167133      -0.00390590      -0.00110747      -0.00706174
Cu       8.97497212       7.18000498       1.79500623      -0.00073327       0.00132494       0.00073327      -0.00695050
Cu      10.76997835       8.97498077       1.79499759      -0.00000000      -0.00003443       0.00003443      -0.00710759
Cu       3.58998458       0.00000000       3.58998458      -0.00009880      -0.00000000      -0.00009880      -0.00673790
Cu       5.38509057       1.79494092       3.58997326       0.00390590      -0.00110747      -0.00167133      -0.00706174
Cu       7.18002515       3.58995321       3.58995321       0.00321480      -0.00321480      -0.00321480      -0.00703147
Cu       8.97503743       5.38488779       3.58997326       0.00110747      -0.00390590      -0.00167133      -0.00706174
Cu      10.76997835       7.17999377       3.58998458      -0.00000000       0.00009880      -0.00009880      -0.00673790
Cu      12.56498459       8.97497212       3.58997337       0.00073327      -0.00073327      -0.00132494      -0.00695050
Cu       5.38498918       0.00000000       5.38498918      -0.00000000      -0.00000000       0.00000000      -0.00737208
Cu       7.18000510       1.79494092       5.38488779       0.00167133      -0.00110747      -0.00390590      -0.00706174
Cu       8.97503743       3.58997326       5.38488779       0.00110747      -0.00167133      -0.00390590      -0.00706174
Cu      10.76997835       5.38498918       5.38498918       0.00000000      -0.00000000      -0.00000000      -0.00737208
Cu      12.56491927       7.18000510       5.38509057      -0.00110747       0.00167133       0.00390590      -0.00706174
Cu      14.35995161       8.97503743       5.38509057      -0.00167133       0.00110747       0.00390590      -0.00706174
Cu       7.17999377       0.00000000       7.17999377       0.00009880      -0.00000000       0.00009880      -0.00673790
Cu       8.97497212       1.79500623       7.18000498      -0.00073327       0.00073327       0.00132494      -0.00695050
Cu      10.76997835       3.58998458       7.17999377      -0.00000000      -0.00009880       0.00009880      -0.00673790
Cu      12.56491927       5.38509057       7.18000510      -0.00110747       0.00390590       0.00167133      -0.00706174
Cu      14.35993156       7.18002515       7.18002515      -0.00321480       0.00321480       0.00321480      -0.00703147
Cu      16.15486614       8.97503743       7.18000510      -0.00390590       0.00110747       0.00167133      -0.00706174
Cu       8.97498077      -0.00000000       8.97498077      -0.00003443       0.00000000      -0.00003443      -0.00710759
Cu      10.76997835       1.79499759       8.97498077      -0.00000000       0.00003443      -0.00003443      -0.00710759
Cu      12.56498459       3.58997337       8.97497212       0.00073327      -0.00132494      -0.00073327      -0.00695050
Cu      14.35995161       5.38509057       8.97503743      -0.00167133       0.00390590       0.00110747      -0.00706174
Cu      16.15486614       7.18000510       8.97503743      -0.00390590       0.00167133       0.00110747      -0.00706174
Cu      17.94998334       8.97497212       8.97497212       0.00132494      -0.00073327      -0.00073327      -0.00695050
Cu       0.00000000       1.79499759       1.79499759       0.00000000       0.00003443       0.00003443      -0.00710759
Cu       1.79500623       3.58997337       1.79500623       0.00073327      -0.00132494       0.00073327      -0.00695050
Cu       3.58997326       5.38509057       1.79494092      -0.00167133       0.00390590      -0.00110747      -0.00706174
Cu       5.38488779       7.18000510       1.79494092      -0.00390590       0.00167133      -0.00110747      -0.00706174
Cu       7.18000498       8.97497212       1.79500623       0.00132494      -0.00073327       0.00073327      -0.00695050
Cu       8.97498077      10.76997835       1.79499759      -0.00003443      -0.00000000       0.00003443      -0.00710759
Cu       1.79500623       1.79500623       3.58997337       0.00073327       0.00073327      -0.00132494      -0.00695050
Cu       3.58999218       3.58999218       3.58999218       0.00003785       0.00003785       0.00003785      -0.00703815
Cu       5.38498918       5.38498918       3.58999133       0.00000000      -0.00000000      -0.00026534      -0.00697361
Cu       7.17998617       7.17998617       3.58999218      -0.00003785      -0.00003785       0.00003785      -0.00703815
Cu       8.97497212       8.97497212       3.58997337      -0.00073327      -0.00073327      -0.00132494      -0.00695050
Cu      10.76997835      10.76997835       3.59008655       0.00000000      -0.00000000       0.00040684      -0.00736066
Cu       3.58997326       1.79494092       5.38509057      -0.00167133      -0.00110747       0.00390590      -0.00706174
Cu       5.38498918       3.58999133       5.38498918       0.00000000      -0.00026534       0.00000000      -0.00697361
Cu       7.17998702       5.38498918       5.38498918       0.00026534      -0.00000000       0.00000000      -0.00697361
Cu       8.97503743       7.18000510       5.38509057       0.00110747       0.00167133       0.00390590      -0.00706174
Cu      10.76997835       8.97427757       5.38426164      -0.00000000      -0.00248567      -0.00259758      -0.00630662
Cu      12.56567913      10.76997835       5.38426164       0.00248567      -0.00000000      -0.00259758      -0.00630662
Cu       5.38488779       1.79494092       7.18000510      -0.00390590      -0.00110747       0.00167133      -0.00706174
Cu       7.17998617       3.58999218       7.17998617      -0.00003785       0.00003785      -0.00003785      -0.00703815
Cu       8.97503743       5.38509057       7.18000510       0.00110747       0.00390590       0.00167133      -0.00706174
Cu      10.76997835       7.18216666       7.18216666       0.00000000       0.00887563       0.00887563      -0.00728893
Cu      12.56414948       8.97580722       7.18158176      -0.00619365       0.00619365       0.00631361      -0.00512663
Cu      14.35779004      10.76997835       7.18216666      -0.00887563       0.00000000       0.00887563      -0.00728893
Cu       7.18000498       1.79500623       8.97497212       0.00132494       0.00073327      -0.00073327      -0.00695050
Cu       8.97497212       3.58997337       8.97497212      -0.00073327      -0.00132494      -0.00073327      -0.00695050
Cu      10.76997835       5.38426164       8.97427757      -0.00000000      -0.00259758      -0.00248567      -0.00630662
Cu      12.56414948       7.18158176       8.97580722      -0.00619365       0.00631361       0.00619365      -0.00512663
Cu      14.35837494       8.97580722       8.97580722      -0.00631361       0.00619365       0.00619365      -0.00512663
Cu      16.15569506      10.76997835       8.97427757       0.00259758       0.00000000      -0.00248567      -0.00630662
Cu       8.97498077       1.79499759      10.76997835      -0.00003443       0.00003443      -0.00000000      -0.00710759
Cu      10.76997835       3.59008655      10.76997835       0.00000000       0.00040684      -0.00000000      -0.00736066
Cu      12.56567913       5.38426164      10.76997835       0.00248567      -0.00259758       0.00000000      -0.00630662
Cu      14.35779004       7.18216666      10.76997835      -0.00887563       0.00887563      -0.00000000      -0.00728893
Cu      16.15569506       8.97427757      10.76997835       0.00259758      -0.00248567      -0.00000000      -0.00630662
Cu      17.94987015      10.76997835      10.76997835      -0.00040684      -0.00000000      -0.00000000      -0.00736066
Cu       0.00000000       3.58998458       3.58998458      -0.00000000      -0.00009880      -0.00009880      -0.00673790
Cu       1.79494092       5.38509057       3.58997326      -0.00110747       0.00390590      -0.00167133      -0.00706174
Cu       3.58995321       7.18002515       3.58995321      -0.00321480       0.00321480      -0.00321480      -0.00703147
Cu       5.38488779       8.97503743       3.58997326      -0.00390590       0.00110747      -0.00167133      -0.00706174
Cu       7.17999377      10.76997835       3.58998458       0.00009880      -0.00000000      -0.00009880      -0.00673790
Cu       8.97497212      12.56498459       3.58997337      -0.00073327       0.00073327      -0.00132494      -0.00695050
Cu       1.79494092       3.58997326       5.38509057      -0.00110747      -0.00167133       0.00390590      -0.00706174
Cu       3.58999133       5.38498918       5.38498918      -0.00026534       0.00000000      -0.00000000      -0.00697361
Cu       5.38498918       7.17998702       5.38498918       0.00000000       0.00026534      -0.00000000      -0.00697361
Cu       7.18000510       8.97503743       5.38509057       0.00167133       0.00110747       0.00390590      -0.00706174
Cu       8.97427757      10.76997835       5.38426164      -0.00248567      -0.00000000      -0.00259758      -0.00630662
Cu      10.76997835      12.56567913       5.38426164       0.00000000       0.00248567      -0.00259758      -0.00630662
Cu       3.58995321       3.58995321       7.18002515      -0.00321480      -0.00321480       0.00321480      -0.00703147
Cu       5.38498918       5.38498918       7.17998702       0.00000000       0.00000000       0.00026534      -0.00697361
Cu       7.18002515       7.18002515       7.18002515       0.00321480       0.00321480       0.00321480      -0.00703147
Cu       8.97580722       8.97580722       7.18158176       0.00619365       0.00619365       0.00631361      -0.00512663
Cu      10.76997835      10.76997835       7.17165247       0.00000000      -0.00000000      -0.00213885       0.01024045
Cu      12.56414948      12.56414948       7.18158176      -0.00619365      -0.00619365       0.00631361      -0.00512663
Cu       5.38488779       3.58997326       8.97503743      -0.00390590      -0.00167133       0.00110747      -0.00706174
Cu       7.18000510       5.38509057       8.97503743       0.00167133       0.00390590       0.00110747      -0.00706174
Cu       8.97580722       7.18158176       8.97580722       0.00619365       0.00631361       0.00619365      -0.00512663
Cu      10.76997835       8.98599190       8.98599190       0.00000000       0.00345248       0.00345248       0.08135593
Cu      12.55396481      10.76997835       8.98599190      -0.00345248       0.00000000       0.00345248       0.08135593
Cu      14.35837494      12.56414948       8.97580722      -0.00631361      -0.00619365       0.00619365      -0.00512663
Cu       7.17999377       3.58998458      10.76997835       0.00009880      -0.00009880      -0.00000000      -0.00673790
Cu       8.97427757       5.38426164      10.76997835      -0.00248567      -0.00259758      -0.00000000      -0.00630662
Cu      10.76997835       7.17165247      10.76997835       0.00000000      -0.00213885      -0.00000000       0.01024045
Cu      12.55396481       8.98599190      10.76997835      -0.00345248       0.00345248       0.00000000       0.08135593
Cu      14.36830423      10.76997835      10.76997835       0.00213885      -0.00000000      -0.00000000       0.01024045
Cu      16.15569506      12.56567913      10.76997835       0.00259758       0.00248567       0.00000000      -0.00630662
Cu       8.97497212       3.58997337      12.56498459      -0.00073327      -0.00132494       0.00073327      -0.00695050
Cu      10.76997835       5.38426164      12.56567913      -0.00000000      -0.00259758       0.00248567      -0.00630662
Cu      12.56414948       7.18158176      12.56414948      -0.00619365       0.00631361      -0.00619365      -0.00512663
Cu      14.35837494       8.97580722      12.56414948      -0.00631361       0.00619365      -0.00619365      -0.00512663
Cu      16.15569506      10.76997835      12.56567913       0.00259758      -0.00000000       0.00248567      -0.00630662
Cu      17.94998334      12.56498459      12.56498459       0.00132494       0.00073327       0.00073327      -0.00695050
Cu      -0.00000000       5.38498918       5.38498918      -0.00000000       0.00000000       0.00000000      -0.00737208
Cu       1.79494092       7.18000510       5.38488779      -0.00110747       0.00167133      -0.00390590      -0.00706174
Cu       3.58997326       8.97503743       5.38488779      -0.00167133       0.00110747      -0.00390590      -0.00706174
Cu       5.38498918      10.76997835       5.38498918      -0.00000000       0.00000000      -0.00000000      -0.00737208
Cu       7.18000510      12.56491927       5.38509057       0.00167133      -0.00110747       0.00390590      -0.00706174
Cu       8.97503743      14.35995161       5.38509057       0.00110747      -0.00167133       0.00390590      -0.00706174
Cu       1.79494092       5.38488779       7.18000510      -0.00110747      -0.00390590       0.00167133      -0.00706174
Cu       3.58999218       7.17998617       7.17998617       0.00003785      -0.00003785      -0.00003785      -0.00703815
Cu       5.38509057       8.97503743       7.18000510       0.00390590       0.00110747       0.00167133      -0.00706174
Cu       7.18216666      10.76997835       7.18216666       0.00887563       0.00000000       0.00887563      -0.00728893
Cu       8.97580722      12.56414948       7.18158176       0.00619365      -0.00619365       0.00631361      -0.00512663
Cu      10.76997835      14.35779004       7.18216666      -0.00000000      -0.00887563       0.00887563      -0.00728893
Cu       3.58997326       5.38488779       8.97503743      -0.00167133      -0.00390590       0.00110747      -0.00706174
Cu       5.38509057       7.18000510       8.97503743       0.00390590       0.00167133       0.00110747      -0.00706174
Cu       7.18158176       8.97580722       8.97580722       0.00631361       0.00619365       0.00619365      -0.00512663
Cu       8.98599190      10.76997835       8.98599190       0.00345248       0.00000000       0.00345248       0.08135593
Cu      10.76997835      12.55396481       8.98599190      -0.00000000      -0.00345248       0.00345248       0.08135593
Cu      12.56414948      14.35837494       8.97580722      -0.00619365      -0.00631361       0.00619365      -0.00512663
Cu       5.38498918       5.38498918      10.76997835      -0.00000000      -0.00000000      -0.00000000      -0.00737208
Cu       7.18216666       7.18216666      10.76997835       0.00887563       0.00887563      -0.00000000      -0.00728893
Cu       8.98599190       8.98599190      10.76997835       0.00345248       0.00345248       0.00000000       0.08135593
Cu      12.55396481      12.55396481      10.76997835      -0.00345248      -0.00345248      -0.00000000       0.08135593
Cu      14.35779004      14.35779004      10.76997835      -0.00887563      -0.00887563       0.00000000      -0.00728893
Cu       7.18000510       5.38509057      12.56491927       0.00167133       0.00390590      -0.00110747      -0.00706174
Cu       8.97580722       7.18158176      12.56414948       0.00619365       0.00631361      -0.00619365      -0.00512663
Cu      10.76997835       8.98599190      12.55396481       0.00000000       0.00345248      -0.00345248       0.08135593
Cu      12.55396481      10.76997835      12.55396481      -0.00345248      -0.00000000      -0.00345248       0.08135593
Cu      14.35837494      12.56414948      12.56414948      -0.00631361      -0.00619365      -0.00619365      -0.00512663
Cu      16.15486614      14.35995161      12.56491927      -0.00390590      -0.00167133      -0.00110747      -0.00706174
Cu       8.97503743       5.38509057      14.35995161       0.00110747       0.00390590      -0.00167133      -0.00706174
Cu      10.76997835       7.18216666      14.35779004       0.00000000       0.00887563      -0.00887563      -0.00728893
Cu      12.56414948       8.97580722      14.35837494      -0.00619365       0.00619365      -0.00631361      -0.00512663
Cu      14.35779004      10.76997835      14.35779004      -0.00887563      -0.00000000      -0.00887563      -0.00728893
Cu      16.15486614      12.56491927      14.35995161      -0.00390590      -0.00110747      -0.00167133      -0.00706174
Cu      17.94996452      14.35997054      14.35997054      -0.00003785       0.00003785       0.00003785      -0.00703815
Cu      -0.00000000       7.17999377       7.17999377      -0.00000000       0.00009880       0.00009880      -0.00673790
Cu       1.79500623       8.97497212       7.18000498       0.00073327      -0.00073327       0.00132494      -0.00695050
Cu       3.58998458      10.76997835       7.17999377      -0.00009880       0.00000000       0.00009880      -0.00673790
Cu       5.38509057      12.56491927       7.18000510       0.00390590      -0.00110747       0.00167133      -0.00706174
Cu       7.18002515      14.35993156       7.18002515       0.00321480      -0.00321480       0.00321480      -0.00703147
Cu       8.97503743      16.15486614       7.18000510       0.00110747      -0.00390590       0.00167133      -0.00706174
Cu       1.79500623       7.18000498       8.97497212       0.00073327       0.00132494      -0.00073327      -0.00695050
Cu       3.58997337       8.97497212       8.97497212      -0.00132494      -0.00073327      -0.00073327      -0.00695050
Cu       5.38426164      10.76997835       8.97427757      -0.00259758       0.00000000      -0.00248567      -0.00630662
Cu       7.18158176      12.56414948       8.97580722       0.00631361      -0.00619365       0.00619365      -0.00512663
Cu       8.97580722      14.35837494       8.97580722       0.00619365      -0.00631361       0.00619365      -0.00512663
Cu      10.76997835      16.15569506       8.97427757      -0.00000000       0.00259758      -0.00248567      -0.00630662
Cu       3.58998458       7.17999377      10.76997835      -0.00009880       0.00009880      -0.00000000      -0.00673790
Cu       5.38426164       8.97427757      10.76997835      -0.00259758      -0.00248567       0.00000000      -0.00630662
Cu       7.17165247      10.76997835      10.76997835      -0.00213885      -0.00000000      -0.00000000       0.01024045
Cu       8.98599190      12.55396481      10.76997835       0.00345248      -0.00345248      -0.00000000       0.08135593
Cu      10.76997835      14.36830423      10.76997835      -0.00000000       0.00213885      -0.00000000       0.01024045
Cu      12.56567913      16.15569506      10.76997835       0.00248567       0.00259758       0.00000000      -0.00630662
Cu       5.38509057       7.18000510      12.56491927       0.00390590       0.00167133      -0.00110747      -0.00706174
Cu       7.18158176       8.97580722      12.56414948       0.00631361       0.00619365      -0.00619365      -0.00512663
Cu       8.98599190      10.76997835      12.55396481       0.00345248      -0.00000000      -0.00345248       0.08135593
Cu      10.76997835      12.55396481      12.55396481      -0.00000000      -0.00345248      -0.00345248       0.08135593
Cu      12.56414948      14.35837494      12.56414948      -0.00619365      -0.00631361      -0.00619365      -0.00512663
Cu      14.35995161      16.15486614      12.56491927      -0.00167133      -0.00390590      -0.00110747      -0.00706174
Cu       7.18002515       7.18002515      14.35993156       0.00321480       0.00321480      -0.00321480      -0.00703147
Cu       8.97580722       8.97580722      14.35837494       0.00619365       0.00619365      -0.00631361      -0.00512663
Cu      10.76997835      10.76997835      14.36830423       0.00000000       0.00000000       0.00213885       0.01024045
Cu      12.56414948      12.56414948      14.35837494      -0.00619365      -0.00619365      -0.00631361      -0.00512663
Cu      14.35993156      14.35993156      14.35993156      -0.00321480      -0.00321480      -0.00321480      -0.00703147
Cu      16.15496753      16.15496753      14.35996968      -0.00000000      -0.00000000      -0.00026534      -0.00697361
Cu       8.97503743       7.18000510      16.15486614       0.00110747       0.00167133      -0.00390590      -0.00706174
Cu      10.76997835       8.97427757      16.15569506       0.00000000      -0.00248567       0.00259758      -0.00630662
Cu      12.56567913      10.76997835      16.15569506       0.00248567      -0.00000000       0.00259758      -0.00630662
Cu      14.35995161      12.56491927      16.15486614      -0.00167133      -0.00110747      -0.00390590      -0.00706174
Cu      16.15496753      14.35996968      16.15496753       0.00000000      -0.00026534      -0.00000000      -0.00697361
Cu      17.94996538      16.15496753      16.15496753       0.00026534      -0.00000000       0.00000000      -0.00697361
Cu       0.00000000       8.97498077       8.97498077       0.00000000      -0.00003443      -0.00003443      -0.00710759
Cu       1.79499759      10.76997835       8.97498077       0.00003443      -0.00000000      -0.00003443      -0.00710759
Cu       3.58997337      12.56498459       8.97497212      -0.00132494       0.00073327      -0.00073327      -0.00695050
Cu       5.38509057      14.35995161       8.97503743       0.00390590      -0.00167133       0.00110747      -0.00706174
Cu       7.18000510      16.15486614       8.97503743       0.00167133      -0.00390590       0.00110747      -0.00706174
Cu       8.97497212      17.94998334       8.97497212      -0.00073327       0.00132494      -0.00073327      -0.00695050
Cu       1.79499759       8.97498077      10.76997835       0.00003443      -0.00003443       0.00000000      -0.00710759
Cu       3.59008655      10.76997835      10.76997835       0.00040684       0.00000000       0.00000000      -0.00736066
Cu       5.38426164      12.56567913      10.76997835      -0.00259758       0.00248567       0.00000000      -0.00630662
Cu       7.18216666      14.35779004      10.76997835       0.00887563      -0.00887563      -0.00000000      -0.00728893
Cu       8.97427757      16.15569506      10.76997835      -0.00248567       0.00259758      -0.00000000      -0.00630662
Cu      10.76997835      17.94987015      10.76997835       0.00000000      -0.00040684       0.00000000      -0.00736066
Cu       3.58997337       8.97497212      12.56498459      -0.00132494      -0.00073327       0.00073327      -0.00695050
Cu       5.38426164      10.76997835      12.56567913      -0.00259758       0.00000000       0.00248567      -0.00630662
Cu       7.18158176      12.56414948      12.56414948       0.00631361      -0.00619365      -0.00619365      -0.00512663
Cu       8.97580722      14.35837494      12.56414948       0.00619365      -0.00631361      -0.00619365      -0.00512663
Cu      10.76997835      16.15569506      12.56567913       0.00000000       0.00259758       0.00248567      -0.00630662
Cu      12.56498459      17.94998334      12.56498459       0.00073327       0.00132494       0.00073327      -0.00695050
Cu       5.38509057       8.97503743      14.35995161       0.00390590       0.00110747      -0.00167133      -0.00706174
Cu       7.18216666      10.76997835      14.35779004       0.00887563       0.00000000      -0.00887563      -0.00728893
Cu       8.97580722      12.56414948      14.35837494       0.00619365      -0.00619365      -0.00631361      -0.00512663
Cu      10.76997835      14.35779004      14.35779004      -0.00000000      -0.00887563      -0.00887563      -0.00728893
Cu      12.56491927      16.15486614      14.35995161      -0.00110747      -0.00390590      -0.00167133      -0.00706174
Cu      14.35997054      17.94996452      14.35997054       0.00003785      -0.00003785       0.00003785      -0.00703815
Cu       7.18000510       8.97503743      16.15486614       0.00167133       0.00110747      -0.00390590      -0.00706174
Cu       8.97427757      10.76997835      16.15569506      -0.00248567       0.00000000       0.00259758      -0.00630662
Cu      10.76997835      12.56567913      16.15569506      -0.00000000       0.00248567       0.00259758      -0.00630662
Cu      12.56491927      14.35995161      16.15486614      -0.00110747      -0.00167133      -0.00390590      -0.00706174
Cu      14.35996968      16.15496753      16.15496753      -0.00026534       0.00000000       0.00000000      -0.00697361
Cu      16.15496753      17.94996538      16.15496753      -0.00000000       0.00026534       0.00000000      -0.00697361
Cu       8.97497212       8.97497212      17.94998334      -0.00073327      -0.00073327       0.00132494      -0.00695050
Cu      10.76997835      10.76997835      17.94987015      -0.00000000       0.00000000      -0.00040684      -0.00736066
Cu      12.56498459      12.56498459      17.94998334       0.00073327       0.00073327       0.00132494      -0.00695050
Cu      14.35997054      14.35997054      17.94996452       0.00003785       0.00003785      -0.00003785      -0.00703815
Cu      16.15496753      16.15496753      17.94996538      -0.00000000       0.00000000       0.00026534      -0.00697361
Cu      17.94996452      17.94996452      17.94996452      -0.00003785      -0.00003785      -0.00003785      -0.00703815
215
Lattice="0.0 10.769978352079763 10.769978352079763 10.769978352079763 0.0 10.769978352079763 10.769978352079763 10.769978352079763 0.0" Properties=species:S:1:pos:R:3:forces:R:3:energies:R:1 config_type=bulk_vac_images energy=-0.09191346791329025 free_energy=-0.09191346791329025 pbc="T T T"
Cu      -0.00010175      -0.00010175       0.00000000      -0.00083725      -0.00083725      -0.00000000      -0.00702730
Cu       1.79477076       1.79477076      -0.00000000       0.00009439       0.00009439      -0.00000000      -0.00707654
Cu       3.58973004       3.58973004      -0.00000000       0.00072653       0.00072653       0.00000000      -0.00627324
Cu       5.38470829       5.38470829      -0.00000000       0.00032946       0.00032946       0.00000000      -0.00716338
Cu       7.17970082       7.17970082      -0.00000000      -0.00146407      -0.00146407       0.00000000      -0.00630691
Cu       8.97475528       8.97475528      -0.00000000      -0.00176044      -0.00176044       0.00000000      -0.00697375
Cu       1.79492812      -0.00022918       1.79513187      -0.00019541      -0.00062633      -0.00138871      -0.00722074
Cu       3.59103073       1.79545260       1.79411363       0.00102338       0.00025258      -0.00123381      -0.00672731
Cu       5.38989005       3.58906990       1.78985530      -0.00018839      -0.00019020       0.00067562      -0.00724931
Cu       7.18070179       5.38245205       1.79027969       0.00022293      -0.00275563       0.00146808      -0.00670809
Cu       8.97465101       7.17506800       1.79071010      -0.00191194      -0.00032611       0.00150640      -0.00709507
Cu      10.76916686       8.97342134       1.79414100      -0.00111265      -0.00204069      -0.00121612      -0.00709173
Cu       3.59448113      -0.00113532       3.58490895      -0.00024818      -0.00052871      -0.00196259      -0.00711476
Cu       5.39252680       1.79662579       3.58362163      -0.00296067      -0.00051293       0.00252914      -0.00755070
Cu       7.17650905       3.59298697       3.59268951       0.00144438      -0.00403794       0.00099621      -0.00682356
Cu       8.97030279       5.38479930       3.59139792       0.00098227      -0.00547041      -0.00009884      -0.00698202
Cu      10.76812062       7.17000401       3.58198804      -0.00065364       0.00010929       0.00113068      -0.00707249
Cu      12.56615541       8.96960493       3.58427128      -0.00023359      -0.00141764      -0.00281964      -0.00725340
Cu       5.39070879      -0.00211014       5.37727211      -0.00873515      -0.00025784       0.00685409      -0.00666733
Cu       7.16767322       1.79689089       5.39841528       0.00275061      -0.00102807      -0.00246485      -0.00617265
Cu       8.96589540       3.59730004       5.39869428       0.00154446      -0.00451874      -0.00228627      -0.00659618
Cu      10.76786821       5.39070879       5.39270624      -0.00025784      -0.00873515      -0.00685409      -0.00666733
Cu      12.56686925       7.16767322       5.37156307      -0.00102807       0.00275061       0.00246485      -0.00617265
Cu      14.36727839       8.96589540       5.37128407      -0.00451874       0.00154446       0.00228627      -0.00659618
Cu       7.17000401      -0.00185773       7.18799031       0.00010929      -0.00065364      -0.00113068      -0.00707249
Cu       8.96960493       1.79617706       7.18570707      -0.00141764      -0.00023359       0.00281964      -0.00725340