215
Lattice="0.0 10.769998606616191 10.769998606616191 10.769998606616191 0.0 10.769998606616191 10.769998606616191 10.769998606616191 0.0" Properties=species:S:1:pos:R:3:forces:R:3:energies:R:1 config_type=bulk_vac_images energy=-0.28771761997546896 free_energy=-0.28771761997546896 pbc="T T T"
Cu       0.00000000      -0.00000000      -0.00000000      -0.00000000       0.00000000      -0.00000000      -0.00701616
Cu       1.79500096       1.79500096      -0.00000000       0.00003443       0.00003443       0.00000000      -0.00710758
Cu       3.58999134       3.58999134      -0.00000000      -0.00009878      -0.00009878       0.00000000      -0.00673794
Cu       5.38499930       5.38499930      -0.00000000       0.00000000       0.00000000      -0.00000000      -0.00737201
Cu       7.18000727       7.18000727       0.00000000       0.00009878       0.00009878      -0.00000000      -0.00673794
Cu       8.97499765       8.97499765       0.00000000      -0.00003443      -0.00003443      -0.00000000      -0.00710758
Cu       1.79500096       0.00000000       1.79500096       0.00003443       0.00000000       0.00003443      -0.00710758
Cu       3.58998012       1.79500961       1.79500961      -0.00132480       0.00073320       0.00073320      -0.00695051
Cu       5.38510069       3.58998001       1.79494430       0.00390534      -0.00167103      -0.00110728      -0.00706171
Cu       7.18001860       5.38489792       1.79494430       0.00167103      -0.00390534      -0.00110728      -0.00706171
Cu       8.97498900       7.18001848       1.79500961      -0.00073320       0.00132480       0.00073320      -0.00695051
Cu      10.76999861       8.97499765       1.79500096      -0.00000000      -0.00003443       0.00003443      -0.00710758
Cu       3.58999134       0.00000000       3.58999134      -0.00009878       0.00000000      -0.00009878      -0.00673794
Cu       5.38510069       1.79494430       3.58998001       0.00390534      -0.00110728      -0.00167103      -0.00706171
Cu       7.18003865       3.58995995       3.58995995       0.00321432      -0.00321432      -0.00321432      -0.00703144
Cu       8.97505431       5.38489792       3.58998001       0.00110728      -0.00390534      -0.00167103      -0.00706171
Cu      10.76999861       7.18000727       3.58999134      -0.00000000       0.00009878      -0.00009878      -0.00673794
Cu      12.56500821       8.97498900       3.58998012       0.00073320      -0.00073320      -0.00132480      -0.00695051
Cu       5.38499930      -0.00000000       5.38499930       0.00000000       0.00000000       0.00000000      -0.00737201
Cu       7.18001860       1.79494430       5.38489792       0.00167103      -0.00110728      -0.00390534      -0.00706171
Cu       8.97505431       3.58998001       5.38489792       0.00110728      -0.00167103      -0.00390534      -0.00706171
Cu      10.76999861       5.38499930       5.38499930      -0.00000000      -0.00000000      -0.00000000      -0.00737201
Cu      12.56494290       7.18001860       5.38510069      -0.00110728       0.00167103       0.00390534      -0.00706171
Cu      14.35997861       8.97505431       5.38510069      -0.00167103       0.00110728       0.00390534      -0.00706171
Cu       7.18000727       0.00000000       7.18000727       0.00009878       0.00000000       0.00009878      -0.00673794
Cu       8.97498900       1.79500961       7.18001848      -0.00073320       0.00073320       0.00132480      -0.00695051
Cu      10.76999861       3.58999134       7.18000727       0.00000000      -0.00009878       0.00009878      -0.00673794
Cu      12.56494290       5.38510069       7.18001860      -0.00110728       0.00390534       0.00167103      -0.00706171
Cu      14.35995856       7.18003865       7.18003865      -0.00321432       0.00321432       0.00321432      -0.00703144
Cu      16.15489652       8.97505431       7.18001860      -0.00390534       0.00110728       0.00167103      -0.00706171
Cu       8.97499765       0.00000000       8.97499765      -0.00003443      -0.00000000      -0.00003443      -0.00710758
Cu      10.76999861       1.79500096       8.97499765      -0.00000000       0.00003443      -0.00003443      -0.00710758
Cu      12.56500821       3.58998012       8.97498900       0.00073320      -0.00132480      -0.00073320      -0.00695051
Cu      14.35997861       5.38510069       8.97505431      -0.00167103       0.00390534       0.00110728      -0.00706171
Cu      16.15489652       7.18001860       8.97505431      -0.00390534       0.00167103       0.00110728      -0.00706171
Cu      17.95001709       8.97498900       8.97498900       0.00132480      -0.00073320      -0.00073320      -0.00695051
Cu      -0.00000000       1.79500096       1.79500096       0.00000000       0.00003443       0.00003443      -0.00710758
Cu       1.79500961       3.58998012       1.79500961       0.00073320      -0.00132480       0.00073320      -0.00695051
Cu       3.58998001       5.38510069       1.79494430      -0.00167103       0.00390534      -0.00110728      -0.00706171
Cu       5.38489792       7.18001860       1.79494430      -0.00390534       0.00167103      -0.00110728      -0.00706171
Cu       7.18001848       8.97498900       1.79500961       0.00132480      -0.00073320       0.00073320      -0.00695051
Cu       8.97499765      10.76999861       1.79500096      -0.00003443       0.00000000       0.00003443      -0.00710758
Cu       1.79500961       1.79500961       3.58998012       0.00073320       0.00073320      -0.00132480      -0.00695051
Cu       3.58999894       3.58999894       3.58999894       0.00003784       0.00003784       0.00003784      -0.00703814
Cu       5.38499930       5.38499930       3.58999808      -0.00000000      -0.00000000      -0.00026533      -0.00697361
Cu       7.17999967       7.17999967       3.58999894      -0.00003784      -0.00003784       0.00003784      -0.00703814
Cu       8.97498900       8.97498900       3.58998012      -0.00073320      -0.00073320      -0.00132480      -0.00695051
Cu      10.76999861      10.76999861       3.59009330      -0.00000000       0.00000000       0.00040689      -0.00736065
Cu       3.58998001       1.79494430       5.38510069      -0.00167103      -0.00110728       0.00390534      -0.00706171
Cu       5.38499930       3.58999808       5.38499930      -0.00000000      -0.00026533      -0.00000000      -0.00697361
Cu       7.18000053       5.38499930       5.38499930       0.00026533       0.00000000      -0.00000000      -0.00697361
Cu       8.97505431       7.18001860       5.38510069       0.00110728       0.00167103       0.00390534      -0.00706171
Cu      10.76999861       8.97429450       5.38427183      -0.00000000      -0.00248581      -0.00259781      -0.00630669
Cu      12.56570272      10.76999861       5.38427183       0.00248581      -0.00000000      -0.00259781      -0.00630669
Cu       5.38489792       1.79494430       7.18001860      -0.00390534      -0.00110728       0.00167103      -0.00706171
Cu       7.17999967       3.58999894       7.17999967      -0.00003784       0.00003784      -0.00003784      -0.00703814
Cu       8.97505431       5.38510069       7.18001860       0.00110728       0.00390534       0.00167103      -0.00706171
Cu      10.76999861       7.18217995       7.18217995      -0.00000000       0.00887521       0.00887521      -0.00728879
Cu      12.56417320       8.97582401       7.18159509      -0.00619320       0.00619320       0.00631348      -0.00512654
Cu      14.35781727      10.76999861       7.18217995      -0.00887521       0.00000000       0.00887521      -0.00728879
Cu       7.18001848       1.79500961       8.97498900       0.00132480       0.00073320      -0.00073320      -0.00695051
Cu       8.97498900       3.58998012       8.97498900      -0.00073320      -0.00132480      -0.00073320      -0.00695051
Cu      10.76999861       5.38427183       8.97429450      -0.00000000      -0.00259781      -0.00248581      -0.00630669
Cu      12.56417320       7.18159509       8.97582401      -0.00619320       0.00631348       0.00619320      -0.00512654
Cu      14.35840212       8.97582401       8.97582401      -0.00631348       0.00619320       0.00619320      -0.00512654
Cu      16.15572539      10.76999861       8.97429450       0.00259781       0.00000000      -0.00248581      -0.00630669
Cu       8.97499765       1.79500096      10.76999861      -0.00003443       0.00003443       0.00000000      -0.00710758
Cu      10.76999861       3.59009330      10.76999861       0.00000000       0.00040689       0.00000000      -0.00736065
Cu      12.56570272       5.38427183      10.76999861       0.00248581      -0.00259781       0.00000000      -0.00630669
Cu      14.35781727       7.18217995      10.76999861      -0.00887521       0.00887521       0.00000000      -0.00728879
Cu      16.15572539       8.97429450      10.76999861       0.00259781      -0.00248581      -0.00000000      -0.00630669
Cu      17.94990391      10.76999861      10.76999861      -0.00040689       0.00000000       0.00000000      -0.00736065
Cu      -0.00000000       3.58999134       3.58999134      -0.00000000      -0.00009878      -0.00009878      -0.00673794
Cu       1.79494430       5.38510069       3.58998001      -0.00110728       0.00390534      -0.00167103      -0.00706171
Cu       3.58995995       7.18003865       3.58995995      -0.00321432       0.00321432      -0.00321432      -0.00703144
Cu       5.38489792       8.97505431       3.58998001      -0.00390534       0.00110728      -0.00167103      -0.00706171
Cu       7.18000727      10.76999861       3.58999134       0.00009878       0.00000000      -0.00009878      -0.00673794
Cu       8.97498900      12.56500821       3.58998012      -0.00073320       0.00073320      -0.00132480      -0.00695051
Cu       1.79494430       3.58998001       5.38510069      -0.00110728      -0.00167103       0.00390534      -0.00706171
Cu       3.58999808       5.38499930       5.38499930      -0.00026533      -0.00000000      -0.00000000      -0.00697361
Cu       5.38499930       7.18000053       5.38499930       0.00000000       0.00026533      -0.00000000      -0.00697361
Cu       7.18001860       8.97505431       5.38510069       0.00167103       0.00110728       0.00390534      -0.00706171
Cu       8.97429450      10.76999861       5.38427183      -0.00248581       0.00000000      -0.00259781      -0.00630669
Cu      10.76999861      12.56570272       5.38427183      -0.00000000       0.00248581      -0.00259781      -0.00630669
Cu       3.58995995       3.58995995       7.18003865      -0.00321432      -0.00321432       0.00321432      -0.00703144
Cu       5.38499930       5.38499930       7.18000053       0.00000000      -0.00000000       0.00026533      -0.00697361
Cu       7.18003865       7.18003865       7.18003865       0.00321432       0.00321432       0.00321432      -0.00703144
Cu       8.97582401       8.97582401       7.18159509       0.00619320       0.00619320       0.00631348      -0.00512654
Cu      10.76999861      10.76999861       7.17166613       0.00000000      -0.00000000      -0.00213926       0.01024026
Cu      12.56417320      12.56417320       7.18159509      -0.00619320      -0.00619320       0.00631348      -0.00512654
Cu       5.38489792       3.58998001       8.97505431      -0.00390534      -0.00167103       0.00110728      -0.00706171
Cu       7.18001860       5.38510069       8.97505431       0.00167103       0.00390534       0.00110728      -0.00706171
Cu       8.97582401       7.18159509       8.97582401       0.00619320       0.00631348       0.00619320      -0.00512654
Cu      10.76999861       8.98600774       8.98600774       0.00000000       0.00345330       0.00345330       0.08135637
Cu      12.55398947      10.76999861       8.98600774      -0.00345330      -0.00000000       0.00345330       0.08135637
Cu      14.35840212      12.56417320       8.97582401      -0.00631348      -0.00619320       0.00619320      -0.00512654
Cu       7.18000727       3.58999134      10.76999861       0.00009878      -0.00009878       0.00000000      -0.00673794
Cu       8.97429450       5.38427183      10.76999861      -0.00248581      -0.00259781       0.00000000      -0.00630669
Cu      10.76999861       7.17166613      10.76999861      -0.00000000      -0.00213926       0.00000000       0.01024026
Cu      12.55398947       8.98600774      10.76999861      -0.00345330       0.00345330       0.00000000       0.08135637
Cu      14.36833108      10.76999861      10.76999861       0.00213926      -0.00000000      -0.00000000       0.01024026
Cu      16.15572539      12.56570272      10.76999861       0.00259781       0.00248581      -0.00000000      -0.00630669
Cu       8.97498900       3.58998012      12.56500821      -0.00073320      -0.00132480       0.00073320      -0.00695051
Cu      10.76999861       5.38427183      12.56570272      -0.00000000      -0.00259781       0.00248581      -0.00630669
Cu      12.56417320       7.18159509      12.56417320      -0.00619320       0.00631348      -0.00619320      -0.00512654
Cu      14.35840212       8.97582401      12.56417320      -0.00631348       0.00619320      -0.00619320      -0.00512654
Cu      16.15572539      10.76999861      12.56570272       0.00259781       0.00000000       0.00248581      -0.00630669
Cu      17.95001709      12.56500821      12.56500821       0.00132480       0.00073320       0.00073320      -0.00695051
Cu      -0.00000000       5.38499930       5.38499930       0.00000000      -0.00000000      -0.00000000      -0.00737201
Cu       1.79494430       7.18001860       5.38489792      -0.00110728       0.00167103      -0.00390534      -0.00706171
Cu       3.58998001       8.97505431       5.38489792      -0.00167103       0.00110728      -0.00390534      -0.00706171
Cu       5.38499930      10.76999861       5.38499930      -0.00000000      -0.00000000       0.00000000      -0.00737201
Cu       7.18001860      12.56494290       5.38510069       0.00167103      -0.00110728       0.00390534      -0.00706171
Cu       8.97505431      14.35997861       5.38510069       0.00110728      -0.00167103       0.00390534      -0.00706171
Cu       1.79494430       5.38489792       7.18001860      -0.00110728      -0.00390534       0.00167103      -0.00706171
Cu       3.58999894       7.17999967       7.17999967       0.00003784      -0.00003784      -0.00003784      -0.00703814
Cu       5.38510069       8.97505431       7.18001860       0.00390534       0.00110728       0.00167103      -0.00706171
Cu       7.18217995      10.76999861       7.18217995       0.00887521       0.00000000       0.00887521      -0.00728879
Cu       8.97582401      12.56417320       7.18159509       0.00619320      -0.00619320       0.00631348      -0.00512654
Cu      10.76999861      14.35781727       7.18217995       0.00000000      -0.00887521       0.00887521      -0.00728879
Cu       3.58998001       5.38489792       8.97505431      -0.00167103      -0.00390534       0.00110728      -0.00706171
Cu       5.38510069       7.18001860       8.97505431       0.00390534       0.00167103       0.00110728      -0.00706171
Cu       7.18159509       8.97582401       8.97582401       0.00631348       0.00619320       0.00619320      -0.00512654
Cu       8.98600774      10.76999861       8.98600774       0.00345330      -0.00000000       0.00345330       0.08135637
Cu      10.76999861      12.55398947       8.98600774      -0.00000000      -0.00345330       0.00345330       0.08135637
Cu      12.56417320      14.35840212       8.97582401      -0.00619320      -0.00631348       0.00619320      -0.00512654
Cu       5.38499930       5.38499930      10.76999861       0.00000000       0.00000000       0.00000000      -0.00737201
Cu       7.18217995       7.18217995      10.76999861       0.00887521       0.00887521       0.00000000      -0.00728879
Cu       8.98600774       8.98600774      10.76999861       0.00345330       0.00345330       0.00000000       0.08135637
Cu      12.55398947      12.55398947      10.76999861      -0.00345330      -0.00345330       0.00000000       0.08135637
Cu      14.35781727      14.35781727      10.76999861      -0.00887521      -0.00887521      -0.00000000      -0.00728879
Cu       7.18001860       5.38510069      12.56494290       0.00167103       0.00390534      -0.00110728      -0.00706171
Cu       8.97582401       7.18159509      12.56417320       0.00619320       0.00631348      -0.00619320      -0.00512654
Cu      10.76999861       8.98600774      12.55398947      -0.00000000       0.00345330      -0.00345330       0.08135637
Cu      12.55398947      10.76999861      12.55398947      -0.00345330      -0.00000000      -0.00345330       0.08135637
Cu      14.35840212      12.56417320      12.56417320      -0.00631348      -0.00619320      -0.00619320      -0.00512654
Cu      16.15489652      14.35997861      12.56494290      -0.00390534      -0.00167103      -0.00110728      -0.00706171
Cu       8.97505431       5.38510069      14.35997861       0.00110728       0.00390534      -0.00167103      -0.00706171
Cu      10.76999861       7.18217995      14.35781727      -0.00000000       0.00887521      -0.00887521      -0.00728879
Cu      12.56417320       8.97582401      14.35840212      -0.00619320       0.00619320      -0.00631348      -0.00512654
Cu      14.35781727      10.76999861      14.35781727      -0.00887521      -0.00000000      -0.00887521      -0.00728879
Cu      16.15489652      12.56494290      14.35997861      -0.00390534      -0.00110728      -0.00167103      -0.00706171
Cu      17.94999828      14.35999754      14.35999754      -0.00003784       0.00003784       0.00003784      -0.00703814
Cu      -0.00000000       7.18000727       7.18000727       0.00000000       0.00009878       0.00009878      -0.00673794
Cu       1.79500961       8.97498900       7.18001848       0.00073320      -0.00073320       0.00132480      -0.00695051
Cu       3.58999134      10.76999861       7.18000727      -0.00009878      -0.00000000       0.00009878      -0.00673794
Cu       5.38510069      12.56494290       7.18001860       0.00390534      -0.00110728       0.00167103      -0.00706171
Cu       7.18003865      14.35995856       7.18003865       0.00321432      -0.00321432       0.00321432      -0.00703144
Cu       8.97505431      16.15489652       7.18001860       0.00110728      -0.00390534       0.00167103      -0.00706171
Cu       1.79500961       7.18001848       8.97498900       0.00073320       0.00132480      -0.00073320      -0.00695051
Cu       3.58998012       8.97498900       8.97498900      -0.00132480      -0.00073320      -0.00073320      -0.00695051
Cu       5.38427183      10.76999861       8.97429450      -0.00259781      -0.00000000      -0.00248581      -0.00630669
Cu       7.18159509      12.56417320       8.97582401       0.00631348      -0.00619320       0.00619320      -0.00512654
Cu       8.97582401      14.35840212       8.97582401       0.00619320      -0.00631348       0.00619320      -0.00512654
Cu      10.76999861      16.15572539       8.97429450      -0.00000000       0.00259781      -0.00248581      -0.00630669
Cu       3.58999134       7.18000727      10.76999861      -0.00009878       0.00009878      -0.00000000      -0.00673794
Cu       5.38427183       8.97429450      10.76999861      -0.00259781      -0.00248581      -0.00000000      -0.00630669
Cu       7.17166613      10.76999861      10.76999861      -0.00213926       0.00000000      -0.00000000       0.01024026
Cu       8.98600774      12.55398947      10.76999861       0.00345330      -0.00345330       0.00000000       0.08135637
Cu      10.76999861      14.36833108      10.76999861       0.00000000       0.00213926      -0.00000000       0.01024026
Cu      12.56570272      16.15572539      10.76999861       0.00248581       0.00259781       0.00000000      -0.00630669
Cu       5.38510069       7.18001860      12.56494290       0.00390534       0.00167103      -0.00110728      -0.00706171
Cu       7.18159509       8.97582401      12.56417320       0.00631348       0.00619320      -0.00619320      -0.00512654
Cu       8.98600774      10.76999861      12.55398947       0.00345330      -0.00000000      -0.00345330       0.08135637
Cu      10.76999861      12.55398947      12.55398947       0.00000000      -0.00345330      -0.00345330       0.08135637
Cu      12.56417320      14.35840212      12.56417320      -0.00619320      -0.00631348      -0.00619320      -0.00512654
Cu      14.35997861      16.15489652      12.56494290      -0.00167103      -0.00390534      -0.00110728      -0.00706171
Cu       7.18003865       7.18003865      14.35995856       0.00321432       0.00321432      -0.00321432      -0.00703144
Cu       8.97582401       8.97582401      14.35840212       0.00619320       0.00619320      -0.00631348      -0.00512654
Cu      10.76999861      10.76999861      14.36833108      -0.00000000       0.00000000       0.00213926       0.01024026
Cu      12.56417320      12.56417320      14.35840212      -0.00619320      -0.00619320      -0.00631348      -0.00512654
Cu      14.35995856      14.35995856      14.35995856      -0.00321432      -0.00321432      -0.00321432      -0.00703144
Cu      16.15499791      16.15499791      14.35999668       0.00000000      -0.00000000      -0.00026533      -0.00697361
Cu       8.97505431       7.18001860      16.15489652       0.00110728       0.00167103      -0.00390534      -0.00706171
Cu      10.76999861       8.97429450      16.15572539      -0.00000000      -0.00248581       0.00259781      -0.00630669
Cu      12.56570272      10.76999861      16.15572539       0.00248581      -0.00000000       0.00259781      -0.00630669
Cu      14.35997861      12.56494290      16.15489652      -0.00167103      -0.00110728      -0.00390534      -0.00706171
Cu      16.15499791      14.35999668      16.15499791      -0.00000000      -0.00026533      -0.00000000      -0.00697361
Cu      17.94999914      16.15499791      16.15499791       0.00026533      -0.00000000      -0.00000000      -0.00697361
Cu       0.00000000       8.97499765       8.97499765      -0.00000000      -0.00003443      -0.00003443      -0.00710758
Cu       1.79500096      10.76999861       8.97499765       0.00003443      -0.00000000      -0.00003443      -0.00710758
Cu       3.58998012      12.56500821       8.97498900      -0.00132480       0.00073320      -0.00073320      -0.00695051
Cu       5.38510069      14.35997861       8.97505431       0.00390534      -0.00167103       0.00110728      -0.00706171
Cu       7.18001860      16.15489652       8.97505431       0.00167103      -0.00390534       0.00110728      -0.00706171
Cu       8.97498900      17.95001709       8.97498900      -0.00073320       0.00132480      -0.00073320      -0.00695051
Cu       1.79500096       8.97499765      10.76999861       0.00003443      -0.00003443      -0.00000000      -0.00710758
Cu       3.59009330      10.76999861      10.76999861       0.00040689       0.00000000       0.00000000      -0.00736065
Cu       5.38427183      12.56570272      10.76999861      -0.00259781       0.00248581       0.00000000      -0.00630669
Cu       7.18217995      14.35781727      10.76999861       0.00887521      -0.00887521       0.00000000      -0.00728879
Cu       8.97429450      16.15572539      10.76999861      -0.00248581       0.00259781       0.00000000      -0.00630669
Cu      10.76999861      17.94990391      10.76999861       0.00000000      -0.00040689       0.00000000      -0.00736065
Cu       3.58998012       8.97498900      12.56500821      -0.00132480      -0.00073320       0.00073320      -0.00695051
Cu       5.38427183      10.76999861      12.56570272      -0.00259781      -0.00000000       0.00248581      -0.00630669
Cu       7.18159509      12.56417320      12.56417320       0.00631348      -0.00619320      -0.00619320      -0.00512654
Cu       8.97582401      14.35840212      12.56417320       0.00619320      -0.00631348      -0.00619320      -0.00512654
Cu      10.76999861      16.15572539      12.56570272       0.00000000       0.00259781       0.00248581      -0.00630669
Cu      12.56500821      17.95001709      12.56500821       0.00073320       0.00132480       0.00073320      -0.00695051
Cu       5.38510069       8.97505431      14.35997861       0.00390534       0.00110728      -0.00167103      -0.00706171
Cu       7.18217995      10.76999861      14.35781727       0.00887521      -0.00000000      -0.00887521      -0.00728879
Cu       8.97582401      12.56417320      14.35840212       0.00619320      -0.00619320      -0.00631348      -0.00512654
Cu      10.76999861      14.35781727      14.35781727       0.00000000      -0.00887521      -0.00887521      -0.00728879
Cu      12.56494290      16.15489652      14.35997861      -0.00110728      -0.00390534      -0.00167103      -0.00706171
Cu      14.35999754      17.94999828      14.35999754       0.00003784      -0.00003784       0.00003784      -0.00703814
Cu       7.18001860       8.97505431      16.15489652       0.00167103       0.00110728      -0.00390534      -0.00706171
Cu       8.97429450      10.76999861      16.15572539      -0.00248581      -0.00000000       0.00259781      -0.00630669
Cu      10.76999861      12.56570272      16.15572539       0.00000000       0.00248581       0.00259781      -0.00630669
Cu      12.56494290      14.35997861      16.15489652      -0.00110728      -0.00167103      -0.00390534      -0.00706171
Cu      14.35999668      16.15499791      16.15499791      -0.00026533       0.00000000      -0.00000000      -0.00697361
Cu      16.15499791      17.94999914      16.15499791      -0.00000000       0.00026533      -0.00000000      -0.00697361
Cu       8.97498900       8.97498900      17.95001709      -0.00073320      -0.00073320       0.00132480      -0.00695051
Cu      10.76999861      10.76999861      17.94990391      -0.00000000       0.00000000      -0.00040689      -0.00736065
Cu      12.56500821      12.56500821      17.95001709       0.00073320       0.00073320       0.00132480      -0.00695051
Cu      14.35999754      14.35999754      17.94999828       0.00003784       0.00003784      -0.00003784      -0.00703814
Cu      16.15499791      16.15499791      17.94999914      -0.00000000      -0.00000000       0.00026533      -0.00697361
Cu      17.94999828      17.94999828      17.94999828      -0.00003784      -0.00003784      -0.00003784      -0.00703814
215
Lattice="0.0 10.769998606616191 10.769998606616191 10.769998606616191 0.0 10.769998606616191 10.769998606616191 10.769998606616191 0.0" Properties=species:S:1:pos:R:3:forces:R:3:energies:R:1 config_type=bulk_vac_images energy=-0.091907508165054 free_energy=-0.091907508165054 pbc="T T T"
Cu      -0.00010142      -0.00010142      -0.00000000      -0.00083186      -0.00083186       0.00000000      -0.00702707
Cu       1.79477421       1.79477421      -0.00000000       0.00008987       0.00008987       0.00000000      -0.00707628
Cu       3.58973593       3.58973593       0.00000000       0.00072981       0.00072981      -0.00000000      -0.00627333
Cu       5.38471809       5.38471809      -0.00000000       0.00033058       0.00033058      -0.00000000      -0.00716322
Cu       7.17971516       7.17971516       0.00000000      -0.00146492      -0.00146492      -0.00000000      -0.00630692
Cu       8.97477359       8.97477359       0.00000000      -0.00176424      -0.00176424      -0.00000000      -0.00697367
Cu       1.79493246      -0.00022955       1.79513554      -0.00021279      -0.00061054      -0.00137080      -0.00722091
Cu       3.59103510       1.79545601       1.79411876       0.00104051       0.00024316      -0.00124053      -0.00672751
Cu       5.38989940       3.58907622       1.78985912      -0.00020867      -0.00018208       0.00069299      -0.00724934
Cu       7.18071258       5.38246556       1.79028606       0.00025195      -0.00278331       0.00144057      -0.00670792
Cu       8.97466908       7.17508272       1.79071368      -0.00192002      -0.00030715       0.00152410      -0.00709520
Cu      10.76918751       8.97344100       1.79414606      -0.00110166      -0.00205617      -0.00122204      -0.00709190
Cu       3.59448595      -0.00113472       3.58491975      -0.00024480      -0.00052669      -0.00196842      -0.00711470
Cu       5.39253471       1.79662843       3.58363089      -0.00295708      -0.00050910       0.00251338      -0.00755048
Cu       7.17652085       3.59299467       3.59269564       0.00145521      -0.00405153       0.00099830      -0.00682378
Cu       8.97031986       5.38481167       3.59140410       0.00099244      -0.00547704      -0.00009823      -0.00698219
Cu      10.76814234       7.17002039       3.58199732      -0.00065836       0.00010312       0.00111228      -0.00707234
Cu      12.56617896       8.96962427       3.58428223      -0.00023425      -0.00142011      -0.00282707      -0.00725327
Cu       5.39072153      -0.00210992       5.37728194      -0.00878006      -0.00024320       0.00689109      -0.00666736
Cu       7.16768462       1.79689470       5.39842591       0.00280022      -0.00104178      -0.00250773      -0.00617288
Cu       8.96591440       3.59730574       5.39870020       0.00153581      -0.00451481      -0.00228870      -0.00659653
Cu      10.76788869       5.39072153       5.39271667      -0.00024320      -0.00878006      -0.00689109      -0.00666736
Cu      12.56689331       7.16768462       5.37157270      -0.00104178       0.00280022       0.00250773      -0.00617288
Cu      14.36730434       8.96591440       5.37129841      -0.00451481       0.00153581       0.00228870      -0.00659653
Cu       7.17002039      -0.00185627       7.18800129       0.00010312      -0.00065836      -0.00111228      -0.00707234
Cu       8.96962427       1.79618035       7.18571638      -0.00142011      -0.00023425       0.00282707      -0.00725327