215
Lattice="15.330052718663417 0.0 0.0 7.665026125065454 13.276214689956568 0.0 7.6650263151498095 4.425405006397775 12.516935558081926" Properties=species:S:1:pos:R:3:forces:R:3 config_type=bulkCu virial="9.99358827398298 10.0335730843417 9.99918311600807 -0.0110993763349172 0.0032390181246515 0.0096265858396423" free_energy=-759.827069052099 energy=0.0 pbc="T T T"
Cu       0.00000000       0.00000000       0.00000000       0.00000000       0.00000000       0.00000000
Cu      19.16099924      12.53692881      10.42961073       0.00000114      -0.00000057      -0.00000148
Cu      14.05325315      11.06314880       0.00247875       0.00000107      -0.00000163      -0.00000017
Cu      15.33005252      11.79406831       2.09607160      -0.00000000       0.00000105      -0.00000148
Cu      16.60629853      12.53074415       4.17587661      -0.00000114       0.00000022       0.00000061
Cu      17.87898921      13.26569759       6.25846778       0.00000090       0.00000157      -0.00000000
Cu      19.16099921      14.01210736       8.34339314       0.00000114      -0.00000159      -0.00000005
Cu      20.44028914      14.75122326      10.43069020      -0.00000019       0.00000011       0.00000008
Cu      10.21974412      -0.00000000      -0.00000000      -0.00000030       0.00000000       0.00000000
Cu      11.49726095       0.73786089       2.08622279       0.00000012      -0.00000092       0.00000025
Cu      12.77489840       1.47521901       4.17254947      -0.00000015       0.00000009       0.00000025
Cu      14.05251054       2.21530358       6.25838850       0.00000088       0.00000042       0.00000170
Cu      15.33005269       2.95422110       8.34322678       0.00000000      -0.00000087       0.00000031
Cu      16.60685206       3.69005335      10.42961073      -0.00000107      -0.00000070      -0.00000148
Cu      11.49726091       2.21286329       0.00025432       0.00000012      -0.00000007      -0.00000095
Cu      12.77465051       2.95036451       2.08622279       0.00000086       0.00000036       0.00000026
Cu      14.05216818       3.68711408       4.17226586       0.00000104       0.00000139      -0.00000029
Cu      15.33005265       4.43403457       6.25695793       0.00000001       0.00000043       0.00000124
Cu      16.60629867       5.17087555       8.34105895      -0.00000113      -0.00000023      -0.00000061
Cu      17.88511776       5.90006855      10.43144630       0.00000036       0.00000100      -0.00000141
Cu      12.77489834       4.42565693      -0.00000000      -0.00000015       0.00000026       0.00000000
Cu      14.05216815       5.16268791       2.08548926       0.00000105       0.00000019       0.00000141
Cu      15.33005262       5.89357356       4.16738591       0.00000001       0.00000277       0.00000196
Cu      16.59229743       6.66453776       6.25846778      -0.00000027       0.00000042       0.00000002
Cu      17.87884622      11.79603847       8.34105895       0.00000076      -0.00000087      -0.00000061
Cu      17.89109442       7.37219173       8.34954965      -0.00000240       0.00000139      -0.00000196
Cu      16.59229736      11.03708194       6.25846778      -0.00000031      -0.00000050      -0.00000001
Cu      14.05380653       9.58765077       2.09479529       0.00000113      -0.00000066      -0.00000001
Cu       8.94182573       0.73535166       2.08732483      -0.00000107       0.00000070       0.00000148
Cu      10.21936787       1.47294096       4.17354242      -0.00000195       0.00000019       0.00000005
Cu      11.49753952       2.21270250       6.25846778      -0.00000000       0.00000000      -0.00000000
Cu      12.77571116       2.95246405       8.34339314       0.00000195      -0.00000019      -0.00000005
Cu      14.05325331       3.69005335      10.42961073       0.00000107      -0.00000070      -0.00000148
Cu       8.94182569       2.21306589      -0.00247875      -0.00000107       0.00000163       0.00000017
Cu      10.21981602       2.95039643       2.08624536       0.00000019      -0.00000011      -0.00000008
Cu      11.49910595       3.68951233       4.17354242      -0.00000114       0.00000159       0.00000005
Cu      12.78111595       4.43592210       6.25846778      -0.00000090      -0.00000157       0.00000000
Cu      14.05380663       5.17087555       8.34105895       0.00000114      -0.00000022      -0.00000061
Cu      15.33005264       5.90755139      10.42086396       0.00000000      -0.00000105       0.00000148
Cu      10.21936781       4.42583374      -0.00247875      -0.00000195       0.00000011       0.00000017
Cu      11.49910592       5.16469088       2.08732483      -0.00000114       0.00000057       0.00000148
Cu      12.78125894       5.90558123       4.17587661      -0.00000076       0.00000087       0.00000061
Cu      14.06780780       6.66453776       6.25846778       0.00000031       0.00000050       0.00000001
Cu      15.33005261       7.39329514       8.31970492      -0.00000000       0.00000028      -0.00000043
Cu      16.60629863       8.11396892      10.42214026      -0.00000113       0.00000066       0.00000001
Cu      11.49753942       6.63810734       0.00000000       0.00000000      -0.00000000       0.00000000
Cu      12.78111589       7.37918056       2.09607159      -0.00000091      -0.00000053      -0.00000148
Cu      14.06780777       8.12205247       4.19723064       0.00000023       0.00000012       0.00000037
Cu      16.59229739       9.57956723       8.31970492      -0.00000023      -0.00000012      -0.00000037
Cu      17.87898927      10.32243913      10.42086396       0.00000091       0.00000053       0.00000148
Cu      12.77571103       8.85038095       0.00247875       0.00000195      -0.00000011      -0.00000017
Cu      15.33005255      10.30832455       4.19723064       0.00000000      -0.00000028       0.00000043
Cu       7.66502636       0.00000000       0.00000000       0.00000000      -0.00000000       0.00000000
Cu      19.16300219       8.11342932      10.43144630      -0.00000068      -0.00000081      -0.00000141
Cu      15.33005259       7.37712788       2.09479529       0.00000000       0.00000131      -0.00000001
Cu      20.43996747       5.90059927      10.43069574       0.00000084      -0.00000048       0.00000069
Cu      15.33005264       4.42572657      -0.00025432       0.00000000      -0.00000013       0.00000096
Cu      16.60793710       5.16268791       2.08548926      -0.00000104       0.00000019       0.00000141
Cu      17.87884631       5.90558123       4.17587661       0.00000077       0.00000087       0.00000061
Cu      19.15509232       6.64242221       6.25997763      -0.00000037       0.00000022      -0.00000124
Cu      20.44088668       7.37564238       8.34466970      -0.00000173      -0.00000021       0.00000029
Cu      21.71768936       8.11363035      10.43071276      -0.00000074      -0.00000056      -0.00000025
Cu      16.60759476       6.63889962       0.00247875      -0.00000088       0.00000174      -0.00000017
Cu      17.87898929       7.37918056       2.09607159       0.00000091      -0.00000052      -0.00000148
Cu      19.15509229       8.11610412       4.17587661      -0.00000036      -0.00000110       0.00000061
Cu      20.42792598       8.85080985       6.25846778       0.00000182       0.00000000       0.00000000
Cu      21.71534081       9.58785818       8.34339313      -0.00000080       0.00000179      -0.00000004
Cu      22.99507892      10.32619781      10.43069019      -0.00000000      -0.00000022       0.00000008
Cu      17.88439409       8.85038095       0.00247875      -0.00000195      -0.00000011      -0.00000017
Cu      19.16300215       9.58819038       2.08548926      -0.00000068       0.00000081       0.00000141
Cu      20.44088662      10.32597732       4.17226586      -0.00000173       0.00000021      -0.00000029
Cu      21.71534078      11.06217905       6.25838850      -0.00000080       0.00000055       0.00000170
Cu      22.99507889      11.80047385       8.34419523      -0.00000000       0.00000055       0.00000039
Cu      24.27310805      12.53834432      10.43120810      -0.00000048       0.00000028      -0.00000039
Cu      19.16228712      11.06335140      -0.00025432       0.00000012       0.00000007       0.00000095
Cu      20.43996735      11.80102043       2.08623981       0.00000084       0.00000049      -0.00000069
Cu      21.71768926      12.53871352       4.17269991      -0.00000074      -0.00000043      -0.00000045
Cu      22.99507886      13.27621474       6.25873609      -0.00000000       0.00000000      -0.00000023
Cu      19.16300224       5.16228161       8.34466970      -0.00000068       0.00000160       0.00000029
Cu      14.05251045       6.63889962       0.00247875       0.00000088       0.00000174      -0.00000017
Cu      17.87898936       4.43592210       6.25846778       0.00000091      -0.00000157       0.00000000
Cu      15.33005267       2.95038858       2.08623981       0.00000000      -0.00000097      -0.00000068
Cu      16.59229740       8.12205247       4.19723063      -0.00000022       0.00000013       0.00000036
Cu      17.85454220       8.85080985       6.25846778      -0.00000042       0.00000001       0.00000001
Cu      19.15509228       9.58551558       8.34105895      -0.00000036       0.00000110      -0.00000061
Cu      20.43779865      10.32544749      10.42961073       0.00000008       0.00000128      -0.00000148
Cu      15.33005256       8.85080979       0.00419077      -0.00000000       0.00000000      -0.00000093
Cu      16.60629858       9.58765077       2.09479529      -0.00000113      -0.00000065      -0.00000001
Cu      17.89109435      10.32942796       4.16738591      -0.00000239      -0.00000139       0.00000196
Cu      19.15509225      11.05919749       6.25695793      -0.00000037      -0.00000022       0.00000124
Cu      20.43664836      11.79910425       8.34322678       0.00000076       0.00000044       0.00000031
Cu      21.71704973      12.53834432      10.43120810       0.00000048       0.00000028      -0.00000039
Cu      16.60685190      11.06314880       0.00247875      -0.00000107      -0.00000163      -0.00000017
Cu      17.88511763      11.80155115       2.08548926       0.00000036      -0.00000100       0.00000141
Cu      19.16300210      12.53933809       4.17226586      -0.00000068      -0.00000160      -0.00000029
Cu      20.43779859      13.27494690       6.25838850       0.00000008      -0.00000097       0.00000170
Cu      21.71704970      14.01408522       8.34419524       0.00000048      -0.00000027       0.00000039
Cu      22.99507885      14.75195569      10.43120810      -0.00000000      -0.00000055      -0.00000039
Cu      12.77484409      -0.00000000      -0.00000000       0.00000408       0.00000000       0.00000000
Cu      14.05244840       0.73762519       2.08631909       0.00000204      -0.00000118      -0.00000333
Cu      15.33005270       1.47500245       4.17269991       0.00000000       0.00000086      -0.00000045
Cu      16.60759485       2.21530358       6.25838850      -0.00000088       0.00000042       0.00000170
Cu      17.88439422       2.95246404       8.34339314      -0.00000195      -0.00000019      -0.00000005
Cu      19.16228728       3.68754412      10.43071276       0.00000012       0.00000092      -0.00000025
Cu      14.05244836       2.21287551      -0.00000000       0.00000204      -0.00000353       0.00000000
Cu      16.60793714       3.68711408       4.17226586      -0.00000104       0.00000139      -0.00000029
Cu      24.27310801      14.01408522       8.34419524      -0.00000048      -0.00000027       0.00000039
Cu      17.88545465      14.75125518      10.43071276      -0.00000086      -0.00000036      -0.00000026
Cu      15.33005251      13.26758513       6.25997763      -0.00000001      -0.00000043      -0.00000124
Cu      10.22345672      11.79910425       8.34322678      -0.00000076       0.00000044       0.00000031
Cu      11.49910582      12.53692881      10.42961073      -0.00000114      -0.00000057      -0.00000148
Cu       6.38742185      11.06333917       0.00000000       0.00000204       0.00000353      -0.00000000
Cu       7.66502616      11.80096436       2.08631910      -0.00000000       0.00000236      -0.00000333
Cu       8.94241576      12.53871352       4.17269991       0.00000074      -0.00000043      -0.00000045
Cu      10.22230642      13.27494690       6.25838850      -0.00000008      -0.00000097       0.00000170
Cu      11.49910579      14.01210736       8.34339314      -0.00000114      -0.00000159      -0.00000004
Cu      12.77465033      14.75125518      10.43071276       0.00000086      -0.00000036      -0.00000025
Cu       2.55520863       0.00000000       0.00000000      -0.00000408      -0.00000000      -0.00000000
Cu       3.83279176       0.73786089       2.08622280      -0.00000012      -0.00000092       0.00000025
Cu       5.11068481       1.47294096       4.17354242       0.00000195       0.00000019       0.00000005
Cu       6.38748418       2.21010142       6.25854706       0.00000088      -0.00000042      -0.00000170
Cu       7.66502633       2.95040255       8.34423565      -0.00000000      -0.00000086       0.00000045
Cu       8.94263064       3.68777982      10.43061646      -0.00000204       0.00000118       0.00000333
Cu       3.83279172       2.21286329       0.00025432      -0.00000012      -0.00000007      -0.00000095
Cu       5.11023660       2.95039643       2.08624536      -0.00000019      -0.00000011      -0.00000008
Cu       6.38699714       3.68753448       4.17274032       0.00000048       0.00000027      -0.00000039
Cu       7.66502630       4.42540496       6.25819947       0.00000000      -0.00000000       0.00000023
Cu       8.94241590       5.16290618       8.34423565       0.00000074       0.00000043       0.00000045
Cu      10.22013781       5.90059927      10.43069575      -0.00000084      -0.00000049       0.00000069
Cu       5.11068475       4.42583374      -0.00247875       0.00000195       0.00000011       0.00000017
Cu       6.38699711       5.16327537       2.08572746       0.00000048      -0.00000028       0.00000039
Cu       7.66502626       5.90114585       4.17274032       0.00000000      -0.00000055      -0.00000039
Cu       8.94476430      11.06217905       6.25838850       0.00000080       0.00000055       0.00000170
Cu       8.94476438       6.63944065       6.25854706       0.00000080      -0.00000055      -0.00000170
Cu       7.66502619      10.32577677       4.17254947      -0.00000000      -0.00000018       0.00000025
Cu       5.10987190       8.85055776       0.00000000      -0.00000015      -0.00000026      -0.00000000
Cu       1.27760431       0.73762519       2.08631910      -0.00000204      -0.00000118      -0.00000333
Cu       2.55515428       1.47521901       4.17254947       0.00000015       0.00000009       0.00000025
Cu       3.83251316       2.21270250       6.25846778       0.00000000       0.00000000       0.00000000
Cu       5.10987203       2.95018599       8.34438608      -0.00000015      -0.00000009      -0.00000025
Cu       6.38742201       3.68777982      10.43061646       0.00000204       0.00000118       0.00000333
Cu       1.27760427       2.21287552      -0.00000000      -0.00000204      -0.00000353       0.00000000
Cu       2.55540211       2.95036452       2.08622279      -0.00000086       0.00000036       0.00000025
Cu       3.83094665       3.68951233       4.17354242       0.00000114       0.00000159       0.00000004
Cu       5.10774602       4.42667279       6.25854706       0.00000008       0.00000097      -0.00000170
Cu       6.38763668       5.16290618       8.34423565      -0.00000074       0.00000043       0.00000045
Cu       7.66502628       5.90065533      10.43061646       0.00000000      -0.00000236       0.00000333
Cu       2.55515422       4.42565693      -0.00000000       0.00000015       0.00000026       0.00000000
Cu       3.83094662       5.16469088       2.08732483       0.00000114       0.00000057       0.00000148
Cu       5.10659572       5.90251545       4.17370878       0.00000076      -0.00000044      -0.00000031
Cu       6.38528814       6.63944065       6.25854706      -0.00000080      -0.00000055      -0.00000170
Cu       7.66502625       7.37584292       8.34438608       0.00000000       0.00000018      -0.00000025
Cu       8.94241585       8.11363035      10.43071276       0.00000074      -0.00000056      -0.00000025
Cu       3.83251306       6.63810734       0.00000000       0.00000000      -0.00000000       0.00000000
Cu       5.10774596       7.37617221       2.08732483       0.00000008      -0.00000128       0.00000148
Cu       6.38528811       8.11376151       4.17354242      -0.00000080      -0.00000178       0.00000004
Cu       7.66502622       8.85080985       6.25846778       0.00000000       0.00000000       0.00000000
Cu       8.94476433       9.58785819       8.34339314       0.00000080       0.00000178      -0.00000004
Cu      10.22230648      10.32544749      10.42961073      -0.00000008       0.00000128      -0.00000148
Cu       6.38763659       9.58798934       2.08622280      -0.00000074       0.00000056       0.00000025
Cu      16.60793697      14.01450562       8.34466970      -0.00000104      -0.00000139       0.00000029
Cu      10.21921854       7.37564238       8.34466970       0.00000173      -0.00000021       0.00000029
Cu       6.38748409       6.63731507      -0.00247875       0.00000088      -0.00000174       0.00000017
Cu      11.49710306       5.16228161       8.34466970       0.00000068       0.00000160       0.00000029
Cu      12.77498753       5.90006855      10.43144630      -0.00000036       0.00000100      -0.00000141
Cu       7.66502628       4.42540490      -0.00419077       0.00000000      -0.00000000       0.00000093
Cu       8.94305543       5.16327537       2.08572746      -0.00000048      -0.00000028       0.00000039
Cu      10.22345680       5.90251545       4.17370878      -0.00000076      -0.00000044      -0.00000031
Cu      11.50501291       6.64242221       6.25997763       0.00000037       0.00000022      -0.00000124
Cu      12.76901080       7.37219173       8.34954965       0.00000239       0.00000139      -0.00000196
Cu      14.05380658       8.11396892      10.42214027       0.00000113       0.00000065       0.00000001
Cu       8.94256840       6.63731507      -0.00247875      -0.00000088      -0.00000174       0.00000017
Cu      10.22230651       7.37617221       2.08732483      -0.00000008      -0.00000128       0.00000148
Cu      11.50501288       8.11610412       4.17587661       0.00000036      -0.00000110       0.00000061
Cu      12.80556295       8.85080985       6.25846778       0.00000042      -0.00000001      -0.00000001
Cu      14.06780776       9.57956723       8.31970492       0.00000022      -0.00000013      -0.00000036
Cu      15.33005257      10.32449181      10.42214027      -0.00000000      -0.00000131       0.00000001
Cu      10.22018051       8.85055776       0.00000000       0.00000015      -0.00000026      -0.00000000
Cu      11.49710296       9.58819038       2.08548926       0.00000068       0.00000081       0.00000141
Cu      12.76901074      10.32942796       4.16738591       0.00000240      -0.00000139       0.00000196
Cu      14.06780773      11.03708194       6.25846778       0.00000027      -0.00000042      -0.00000002
Cu      15.33005254      11.80804614       8.34954965      -0.00000001      -0.00000277      -0.00000196
Cu      16.60793701      12.53893179      10.43144630      -0.00000105      -0.00000019      -0.00000141
Cu      11.49781793      11.06335140      -0.00025432      -0.00000012       0.00000007       0.00000095
Cu      12.77498740      11.80155115       2.08548926      -0.00000036      -0.00000100       0.00000141
Cu      14.05380649      12.53074415       4.17587661       0.00000113       0.00000023       0.00000061
Cu      10.22230657       4.42667279       6.25854706      -0.00000008       0.00000097      -0.00000170
Cu      11.49710301       8.11342932      10.43144630       0.00000068      -0.00000081      -0.00000141
Cu       8.94305546       3.68753448       4.17274032      -0.00000048       0.00000027      -0.00000039
Cu       6.38822694       2.21306589      -0.00247875       0.00000107       0.00000163       0.00000017
Cu       7.66502623       7.37542189       2.08624536       0.00000000       0.00000022      -0.00000008
Cu       8.94476435       8.11376151       4.17354242       0.00000080      -0.00000179       0.00000004
Cu      10.23217918       8.85080985       6.25846778      -0.00000182      -0.00000000      -0.00000000
Cu      11.50501287       9.58551558       8.34105895       0.00000036       0.00000110      -0.00000061
Cu      12.78111586      10.32243913      10.42086396      -0.00000091       0.00000052       0.00000148
Cu       7.66502621       8.85048812       0.00025432      -0.00000000       0.00000013      -0.00000096
Cu       8.94241580       9.58798934       2.08622280       0.00000074       0.00000056       0.00000025
Cu      10.21921848      10.32597732       4.17226586       0.00000173       0.00000021      -0.00000029
Cu      11.50501284      11.05919749       6.25695793       0.00000037      -0.00000022       0.00000124
Cu      12.78125885      11.79603847       8.34105895      -0.00000077      -0.00000087      -0.00000061
Cu      14.05216805      12.53893179      10.43144630       0.00000104      -0.00000019      -0.00000141
Cu       8.94263048      11.06333918       0.00000000      -0.00000204       0.00000353      -0.00000000
Cu      10.22013769      11.80102043       2.08623981      -0.00000084       0.00000048      -0.00000069
Cu      11.49710292      12.53933809       4.17226586       0.00000068      -0.00000160      -0.00000029
Cu      12.78111580      13.26569759       6.25846778      -0.00000091       0.00000157      -0.00000000
Cu      14.05216802      14.01450562       8.34466970       0.00000104      -0.00000139       0.00000029
Cu      15.33005249      14.75123112      10.43069575      -0.00000000       0.00000097       0.00000068
Cu       5.11030860       0.00000000       0.00000000       0.00000030      -0.00000000      -0.00000000
Cu       6.38822698       0.73535166       2.08732483       0.00000107       0.00000070       0.00000148
Cu       7.66502634       1.47118391       4.17370878      -0.00000000       0.00000087      -0.00000031
Cu       8.94256849       2.21010142       6.25854706      -0.00000088      -0.00000042      -0.00000170
Cu      10.22018063       2.95018599       8.34438608       0.00000015      -0.00000009      -0.00000025
Cu      11.49781809       3.68754412      10.43071276      -0.00000012       0.00000092      -0.00000025
Cu       7.66502631       2.94966401       2.08572746       0.00000000       0.00000055       0.00000039
Cu      25.54986856      14.75122326      10.43069019       0.00000019       0.00000011       0.00000008
