215
Lattice="0.0 10.7697 10.7697 10.7697 0.0 10.7697 10.7697 10.7697 0.0" Properties=species:S:1:pos:R:3:forces:R:3:energies:R:1 config_type=bulk_vac_images virial="0.0005020299334420127 0.0005020299334466944 0.0005020299334494344 -7.346025524620771e-17 -2.623938714854354e-16 -1.5099667214572547e-16" energy=-0.2878320313711278 stress="0.0005020299334420127 -1.5099667214572547e-16 -2.623938714854354e-16 -1.5099667214572547e-16 0.0005020299334466944 -7.346025524620771e-17 -2.623938714854354e-16 -7.346025524620771e-17 0.0005020299334494344" free_energy=-0.2878320313711278 pbc="T T T"
Cu      -0.00000000      -0.00000000      -0.00000000       0.00000000       0.00000000       0.00000000      -0.00701624
Cu       1.79495120       1.79495120       0.00000000       0.00003443       0.00003443      -0.00000000      -0.00710777
Cu       3.58989179       3.58989179      -0.00000000      -0.00009911      -0.00009911      -0.00000000      -0.00673739
Cu       5.38485000       5.38485000      -0.00000000      -0.00000000      -0.00000000       0.00000000      -0.00737303
Cu       7.17980821       7.17980821      -0.00000000       0.00009911       0.00009911       0.00000000      -0.00673739
Cu       8.97474880       8.97474880      -0.00000000      -0.00003443      -0.00003443       0.00000000      -0.00710777
Cu       1.79495120       0.00000000       1.79495120       0.00003443      -0.00000000       0.00003443      -0.00710777
Cu       3.58988054       1.79495986       1.79495986      -0.00132677       0.00073424       0.00073424      -0.00695033
Cu       5.38495144       3.58988050       1.79489448       0.00391366      -0.00167548      -0.00110998      -0.00706206
Cu       7.17981950       5.38474856       1.79489448       0.00167548      -0.00391366      -0.00110998      -0.00706206
Cu       8.97474014       7.17981946       1.79495986      -0.00073424       0.00132677       0.00073424      -0.00695033
Cu      10.76970000       8.97474880       1.79495120      -0.00000000      -0.00003443       0.00003443      -0.00710777
Cu       3.58989179      -0.00000000       3.58989179      -0.00009911      -0.00000000      -0.00009911      -0.00673739
Cu       5.38495144       1.79489448       3.58988050       0.00391366      -0.00110998      -0.00167548      -0.00706206
Cu       7.17983953       3.58986047       3.58986047       0.00322137      -0.00322137      -0.00322137      -0.00703182
Cu       8.97480552       5.38474856       3.58988050       0.00110998      -0.00391366      -0.00167548      -0.00706206
Cu      10.76970000       7.17980821       3.58989179      -0.00000000       0.00009911      -0.00009911      -0.00673739
Cu      12.56465986       8.97474014       3.58988054       0.00073424      -0.00073424      -0.00132677      -0.00695033
Cu       5.38485000      -0.00000000       5.38485000      -0.00000000       0.00000000       0.00000000      -0.00737303
Cu       7.17981950       1.79489448       5.38474856       0.00167548      -0.00110998      -0.00391366      -0.00706206
Cu       8.97480552       3.58988050       5.38474856       0.00110998      -0.00167548      -0.00391366      -0.00706206
Cu      10.76970000       5.38485000       5.38485000      -0.00000000       0.00000000       0.00000000      -0.00737303
Cu      12.56459448       7.17981950       5.38495144      -0.00110998       0.00167548       0.00391366      -0.00706206
Cu      14.35958050       8.97480552       5.38495144      -0.00167548       0.00110998       0.00391366      -0.00706206
Cu       7.17980821       0.00000000       7.17980821       0.00009911      -0.00000000       0.00009911      -0.00673739
Cu       8.97474014       1.79495986       7.17981946      -0.00073424       0.00073424       0.00132677      -0.00695033
Cu      10.76970000       3.58989179       7.17980821      -0.00000000      -0.00009911       0.00009911      -0.00673739
Cu      12.56459448       5.38495144       7.17981950      -0.00110998       0.00391366       0.00167548      -0.00706206
Cu      14.35956047       7.17983953       7.17983953      -0.00322137       0.00322137       0.00322137      -0.00703182
Cu      16.15444856       8.97480552       7.17981950      -0.00391366       0.00110998       0.00167548      -0.00706206
Cu       8.97474880      -0.00000000       8.97474880      -0.00003443       0.00000000      -0.00003443      -0.00710777
Cu      10.76970000       1.79495120       8.97474880      -0.00000000       0.00003443      -0.00003443      -0.00710777
Cu      12.56465986       3.58988054       8.97474014       0.00073424      -0.00132677      -0.00073424      -0.00695033
Cu      14.35958050       5.38495144       8.97480552      -0.00167548       0.00391366       0.00110998      -0.00706206
Cu      16.15444856       7.17981950       8.97480552      -0.00391366       0.00167548       0.00110998      -0.00706206
Cu      17.94951946       8.97474014       8.97474014       0.00132677      -0.00073424      -0.00073424      -0.00695033
Cu       0.00000000       1.79495120       1.79495120      -0.00000000       0.00003443       0.00003443      -0.00710777
Cu       1.79495986       3.58988054       1.79495986       0.00073424      -0.00132677       0.00073424      -0.00695033
Cu       3.58988050       5.38495144       1.79489448      -0.00167548       0.00391366      -0.00110998      -0.00706206
Cu       5.38474856       7.17981950       1.79489448      -0.00391366       0.00167548      -0.00110998      -0.00706206
Cu       7.17981946       8.97474014       1.79495986       0.00132677      -0.00073424       0.00073424      -0.00695033
Cu       8.97474880      10.76970000       1.79495120      -0.00003443      -0.00000000       0.00003443      -0.00710777
Cu       1.79495986       1.79495986       3.58988054       0.00073424       0.00073424      -0.00132677      -0.00695033
Cu       3.58989940       3.58989940       3.58989940       0.00003793       0.00003793       0.00003793      -0.00703824
Cu       5.38485000       5.38485000       3.58989856       0.00000000      -0.00000000      -0.00026555      -0.00697358
Cu       7.17980060       7.17980060       3.58989940      -0.00003793      -0.00003793       0.00003793      -0.00703824
Cu       8.97474014       8.97474014       3.58988054      -0.00073424      -0.00073424      -0.00132677      -0.00695033
Cu      10.76970000      10.76970000       3.58999381      -0.00000000      -0.00000000       0.00040624      -0.00736083
Cu       3.58988050       1.79489448       5.38495144      -0.00167548      -0.00110998       0.00391366      -0.00706206
Cu       5.38485000       3.58989856       5.38485000       0.00000000      -0.00026555       0.00000000      -0.00697358
Cu       7.17980144       5.38485000       5.38485000       0.00026555      -0.00000000      -0.00000000      -0.00697358
Cu       8.97480552       7.17981950       5.38495144       0.00110998       0.00167548       0.00391366      -0.00706206
Cu      10.76970000       8.97404501       5.38412167       0.00000000      -0.00248375      -0.00259454      -0.00630568
Cu      12.56535499      10.76970000       5.38412167       0.00248375       0.00000000      -0.00259454      -0.00630568
Cu       5.38474856       1.79489448       7.17981950      -0.00391366      -0.00110998       0.00167548      -0.00706206
Cu       7.17980060       3.58989940       7.17980060      -0.00003793       0.00003793      -0.00003793      -0.00703824
Cu       8.97480552       5.38495144       7.17981950       0.00110998       0.00391366       0.00167548      -0.00706206
Cu      10.76970000       7.18198406       7.18198406       0.00000000       0.00888132       0.00888132      -0.00729093
Cu      12.56382350       8.97557650       7.18139859      -0.00619983       0.00619983       0.00631537      -0.00512793
Cu      14.35741594      10.76970000       7.18198406      -0.00888132       0.00000000       0.00888132      -0.00729093
Cu       7.17981946       1.79495986       8.97474014       0.00132677       0.00073424      -0.00073424      -0.00695033
Cu       8.97474014       3.58988054       8.97474014      -0.00073424      -0.00132677      -0.00073424      -0.00695033
Cu      10.76970000       5.38412167       8.97404501       0.00000000      -0.00259454      -0.00248375      -0.00630568
Cu      12.56382350       7.18139859       8.97557650      -0.00619983       0.00631537       0.00619983      -0.00512793
Cu      14.35800141       8.97557650       8.97557650      -0.00631537       0.00619983       0.00619983      -0.00512793
Cu      16.15527833      10.76970000       8.97404501       0.00259454      -0.00000000      -0.00248375      -0.00630568
Cu       8.97474880       1.79495120      10.76970000      -0.00003443       0.00003443       0.00000000      -0.00710777
Cu      10.76970000       3.58999381      10.76970000       0.00000000       0.00040624      -0.00000000      -0.00736083
Cu      12.56535499       5.38412167      10.76970000       0.00248375      -0.00259454      -0.00000000      -0.00630568
Cu      14.35741594       7.18198406      10.76970000      -0.00888132       0.00888132      -0.00000000      -0.00729093
Cu      16.15527833       8.97404501      10.76970000       0.00259454      -0.00248375       0.00000000      -0.00630568
Cu      17.94940619      10.76970000      10.76970000      -0.00040624       0.00000000      -0.00000000      -0.00736083
Cu       0.00000000       3.58989179       3.58989179      -0.00000000      -0.00009911      -0.00009911      -0.00673739
Cu       1.79489448       5.38495144       3.58988050      -0.00110998       0.00391366      -0.00167548      -0.00706206
Cu       3.58986047       7.17983953       3.58986047      -0.00322137       0.00322137      -0.00322137      -0.00703182
Cu       5.38474856       8.97480552       3.58988050      -0.00391366       0.00110998      -0.00167548      -0.00706206
Cu       7.17980821      10.76970000       3.58989179       0.00009911       0.00000000      -0.00009911      -0.00673739
Cu       8.97474014      12.56465986       3.58988054      -0.00073424       0.00073424      -0.00132677      -0.00695033
Cu       1.79489448       3.58988050       5.38495144      -0.00110998      -0.00167548       0.00391366      -0.00706206
Cu       3.58989856       5.38485000       5.38485000      -0.00026555       0.00000000       0.00000000      -0.00697358
Cu       5.38485000       7.17980144       5.38485000      -0.00000000       0.00026555       0.00000000      -0.00697358
Cu       7.17981950       8.97480552       5.38495144       0.00167548       0.00110998       0.00391366      -0.00706206
Cu       8.97404501      10.76970000       5.38412167      -0.00248375       0.00000000      -0.00259454      -0.00630568
Cu      10.76970000      12.56535499       5.38412167      -0.00000000       0.00248375      -0.00259454      -0.00630568
Cu       3.58986047       3.58986047       7.17983953      -0.00322137      -0.00322137       0.00322137      -0.00703182
Cu       5.38485000       5.38485000       7.17980144      -0.00000000      -0.00000000       0.00026555      -0.00697358
Cu       7.17983953       7.17983953       7.17983953       0.00322137       0.00322137       0.00322137      -0.00703182
Cu       8.97557650       8.97557650       7.18139859       0.00619983       0.00619983       0.00631537      -0.00512793
Cu      10.76970000      10.76970000       7.17146480      -0.00000000       0.00000000      -0.00213323       0.01024304
Cu      12.56382350      12.56382350       7.18139859      -0.00619983      -0.00619983       0.00631537      -0.00512793
Cu       5.38474856       3.58988050       8.97480552      -0.00391366      -0.00167548       0.00110998      -0.00706206
Cu       7.17981950       5.38495144       8.97480552       0.00167548       0.00391366       0.00110998      -0.00706206
Cu       8.97557650       7.18139859       8.97557650       0.00619983       0.00631537       0.00619983      -0.00512793
Cu      10.76970000       8.98577411       8.98577411       0.00000000       0.00344128       0.00344128       0.08134993
Cu      12.55362589      10.76970000       8.98577411      -0.00344128       0.00000000       0.00344128       0.08134993
Cu      14.35800141      12.56382350       8.97557650      -0.00631537      -0.00619983       0.00619983      -0.00512793
Cu       7.17980821       3.58989179      10.76970000       0.00009911      -0.00009911       0.00000000      -0.00673739
Cu       8.97404501       5.38412167      10.76970000      -0.00248375      -0.00259454       0.00000000      -0.00630568
Cu      10.76970000       7.17146480      10.76970000       0.00000000      -0.00213323      -0.00000000       0.01024304
Cu      12.55362589       8.98577411      10.76970000      -0.00344128       0.00344128       0.00000000       0.08134993
Cu      14.36793520      10.76970000      10.76970000       0.00213323      -0.00000000      -0.00000000       0.01024304
Cu      16.15527833      12.56535499      10.76970000       0.00259454       0.00248375       0.00000000      -0.00630568
Cu       8.97474014       3.58988054      12.56465986      -0.00073424      -0.00132677       0.00073424      -0.00695033
Cu      10.76970000       5.38412167      12.56535499      -0.00000000      -0.00259454       0.00248375      -0.00630568
Cu      12.56382350       7.18139859      12.56382350      -0.00619983       0.00631537      -0.00619983      -0.00512793
Cu      14.35800141       8.97557650      12.56382350      -0.00631537       0.00619983      -0.00619983      -0.00512793
Cu      16.15527833      10.76970000      12.56535499       0.00259454      -0.00000000       0.00248375      -0.00630568
Cu      17.94951946      12.56465986      12.56465986       0.00132677       0.00073424       0.00073424      -0.00695033
Cu      -0.00000000       5.38485000       5.38485000       0.00000000      -0.00000000      -0.00000000      -0.00737303
Cu       1.79489448       7.17981950       5.38474856      -0.00110998       0.00167548      -0.00391366      -0.00706206
Cu       3.58988050       8.97480552       5.38474856      -0.00167548       0.00110998      -0.00391366      -0.00706206
Cu       5.38485000      10.76970000       5.38485000      -0.00000000       0.00000000       0.00000000      -0.00737303
Cu       7.17981950      12.56459448       5.38495144       0.00167548      -0.00110998       0.00391366      -0.00706206
Cu       8.97480552      14.35958050       5.38495144       0.00110998      -0.00167548       0.00391366      -0.00706206
Cu       1.79489448       5.38474856       7.17981950      -0.00110998      -0.00391366       0.00167548      -0.00706206
Cu       3.58989940       7.17980060       7.17980060       0.00003793      -0.00003793      -0.00003793      -0.00703824
Cu       5.38495144       8.97480552       7.17981950       0.00391366       0.00110998       0.00167548      -0.00706206
Cu       7.18198406      10.76970000       7.18198406       0.00888132       0.00000000       0.00888132      -0.00729093
Cu       8.97557650      12.56382350       7.18139859       0.00619983      -0.00619983       0.00631537      -0.00512793
Cu      10.76970000      14.35741594       7.18198406      -0.00000000      -0.00888132       0.00888132      -0.00729093
Cu       3.58988050       5.38474856       8.97480552      -0.00167548      -0.00391366       0.00110998      -0.00706206
Cu       5.38495144       7.17981950       8.97480552       0.00391366       0.00167548       0.00110998      -0.00706206
Cu       7.18139859       8.97557650       8.97557650       0.00631537       0.00619983       0.00619983      -0.00512793
Cu       8.98577411      10.76970000       8.98577411       0.00344128       0.00000000       0.00344128       0.08134993
Cu      10.76970000      12.55362589       8.98577411       0.00000000      -0.00344128       0.00344128       0.08134993
Cu      12.56382350      14.35800141       8.97557650      -0.00619983      -0.00631537       0.00619983      -0.00512793
Cu       5.38485000       5.38485000      10.76970000      -0.00000000       0.00000000       0.00000000      -0.00737303
Cu       7.18198406       7.18198406      10.76970000       0.00888132       0.00888132      -0.00000000      -0.00729093
Cu       8.98577411       8.98577411      10.76970000       0.00344128       0.00344128      -0.00000000       0.08134993
Cu      12.55362589      12.55362589      10.76970000      -0.00344128      -0.00344128       0.00000000       0.08134993
Cu      14.35741594      14.35741594      10.76970000      -0.00888132      -0.00888132      -0.00000000      -0.00729093
Cu       7.17981950       5.38495144      12.56459448       0.00167548       0.00391366      -0.00110998      -0.00706206
Cu       8.97557650       7.18139859      12.56382350       0.00619983       0.00631537      -0.00619983      -0.00512793
Cu      10.76970000       8.98577411      12.55362589      -0.00000000       0.00344128      -0.00344128       0.08134993
Cu      12.55362589      10.76970000      12.55362589      -0.00344128       0.00000000      -0.00344128       0.08134993
Cu      14.35800141      12.56382350      12.56382350      -0.00631537      -0.00619983      -0.00619983      -0.00512793
Cu      16.15444856      14.35958050      12.56459448      -0.00391366      -0.00167548      -0.00110998      -0.00706206
Cu       8.97480552       5.38495144      14.35958050       0.00110998       0.00391366      -0.00167548      -0.00706206
Cu      10.76970000       7.18198406      14.35741594      -0.00000000       0.00888132      -0.00888132      -0.00729093
Cu      12.56382350       8.97557650      14.35800141      -0.00619983       0.00619983      -0.00631537      -0.00512793
Cu      14.35741594      10.76970000      14.35741594      -0.00888132       0.00000000      -0.00888132      -0.00729093
Cu      16.15444856      12.56459448      14.35958050      -0.00391366      -0.00110998      -0.00167548      -0.00706206
Cu      17.94950060      14.35959940      14.35959940      -0.00003793       0.00003793       0.00003793      -0.00703824
Cu       0.00000000       7.17980821       7.17980821      -0.00000000       0.00009911       0.00009911      -0.00673739
Cu       1.79495986       8.97474014       7.17981946       0.00073424      -0.00073424       0.00132677      -0.00695033
Cu       3.58989179      10.76970000       7.17980821      -0.00009911      -0.00000000       0.00009911      -0.00673739
Cu       5.38495144      12.56459448       7.17981950       0.00391366      -0.00110998       0.00167548      -0.00706206
Cu       7.17983953      14.35956047       7.17983953       0.00322137      -0.00322137       0.00322137      -0.00703182
Cu       8.97480552      16.15444856       7.17981950       0.00110998      -0.00391366       0.00167548      -0.00706206
Cu       1.79495986       7.17981946       8.97474014       0.00073424       0.00132677      -0.00073424      -0.00695033
Cu       3.58988054       8.97474014       8.97474014      -0.00132677      -0.00073424      -0.00073424      -0.00695033
Cu       5.38412167      10.76970000       8.97404501      -0.00259454       0.00000000      -0.00248375      -0.00630568
Cu       7.18139859      12.56382350       8.97557650       0.00631537      -0.00619983       0.00619983      -0.00512793
Cu       8.97557650      14.35800141       8.97557650       0.00619983      -0.00631537       0.00619983      -0.00512793
Cu      10.76970000      16.15527833       8.97404501      -0.00000000       0.00259454      -0.00248375      -0.00630568
Cu       3.58989179       7.17980821      10.76970000      -0.00009911       0.00009911       0.00000000      -0.00673739
Cu       5.38412167       8.97404501      10.76970000      -0.00259454      -0.00248375       0.00000000      -0.00630568
Cu       7.17146480      10.76970000      10.76970000      -0.00213323       0.00000000      -0.00000000       0.01024304
Cu       8.98577411      12.55362589      10.76970000       0.00344128      -0.00344128      -0.00000000       0.08134993
Cu      10.76970000      14.36793520      10.76970000      -0.00000000       0.00213323      -0.00000000       0.01024304
Cu      12.56535499      16.15527833      10.76970000       0.00248375       0.00259454       0.00000000      -0.00630568
Cu       5.38495144       7.17981950      12.56459448       0.00391366       0.00167548      -0.00110998      -0.00706206
Cu       7.18139859       8.97557650      12.56382350       0.00631537       0.00619983      -0.00619983      -0.00512793
Cu       8.98577411      10.76970000      12.55362589       0.00344128       0.00000000      -0.00344128       0.08134993
Cu      10.76970000      12.55362589      12.55362589      -0.00000000      -0.00344128      -0.00344128       0.08134993
Cu      12.56382350      14.35800141      12.56382350      -0.00619983      -0.00631537      -0.00619983      -0.00512793
Cu      14.35958050      16.15444856      12.56459448      -0.00167548      -0.00391366      -0.00110998      -0.00706206
Cu       7.17983953       7.17983953      14.35956047       0.00322137       0.00322137      -0.00322137      -0.00703182
Cu       8.97557650       8.97557650      14.35800141       0.00619983       0.00619983      -0.00631537      -0.00512793
Cu      10.76970000      10.76970000      14.36793520      -0.00000000       0.00000000       0.00213323       0.01024304
Cu      12.56382350      12.56382350      14.35800141      -0.00619983      -0.00619983      -0.00631537      -0.00512793
Cu      14.35956047      14.35956047      14.35956047      -0.00322137      -0.00322137      -0.00322137      -0.00703182
Cu      16.15455000      16.15455000      14.35959856       0.00000000       0.00000000      -0.00026555      -0.00697358
Cu       8.97480552       7.17981950      16.15444856       0.00110998       0.00167548      -0.00391366      -0.00706206
Cu      10.76970000       8.97404501      16.15527833      -0.00000000      -0.00248375       0.00259454      -0.00630568
Cu      12.56535499      10.76970000      16.15527833       0.00248375      -0.00000000       0.00259454      -0.00630568
Cu      14.35958050      12.56459448      16.15444856      -0.00167548      -0.00110998      -0.00391366      -0.00706206
Cu      16.15455000      14.35959856      16.15455000       0.00000000      -0.00026555       0.00000000      -0.00697358
Cu      17.94950144      16.15455000      16.15455000       0.00026555       0.00000000       0.00000000      -0.00697358
Cu      -0.00000000       8.97474880       8.97474880      -0.00000000      -0.00003443      -0.00003443      -0.00710777
Cu       1.79495120      10.76970000       8.97474880       0.00003443      -0.00000000      -0.00003443      -0.00710777
Cu       3.58988054      12.56465986       8.97474014      -0.00132677       0.00073424      -0.00073424      -0.00695033
Cu       5.38495144      14.35958050       8.97480552       0.00391366      -0.00167548       0.00110998      -0.00706206
Cu       7.17981950      16.15444856       8.97480552       0.00167548      -0.00391366       0.00110998      -0.00706206
Cu       8.97474014      17.94951946       8.97474014      -0.00073424       0.00132677      -0.00073424      -0.00695033
Cu       1.79495120       8.97474880      10.76970000       0.00003443      -0.00003443      -0.00000000      -0.00710777
Cu       3.58999381      10.76970000      10.76970000       0.00040624       0.00000000       0.00000000      -0.00736083
Cu       5.38412167      12.56535499      10.76970000      -0.00259454       0.00248375      -0.00000000      -0.00630568
Cu       7.18198406      14.35741594      10.76970000       0.00888132      -0.00888132      -0.00000000      -0.00729093
Cu       8.97404501      16.15527833      10.76970000      -0.00248375       0.00259454      -0.00000000      -0.00630568
Cu      10.76970000      17.94940619      10.76970000       0.00000000      -0.00040624       0.00000000      -0.00736083
Cu       3.58988054       8.97474014      12.56465986      -0.00132677      -0.00073424       0.00073424      -0.00695033
Cu       5.38412167      10.76970000      12.56535499      -0.00259454      -0.00000000       0.00248375      -0.00630568
Cu       7.18139859      12.56382350      12.56382350       0.00631537      -0.00619983      -0.00619983      -0.00512793
Cu       8.97557650      14.35800141      12.56382350       0.00619983      -0.00631537      -0.00619983      -0.00512793
Cu      10.76970000      16.15527833      12.56535499       0.00000000       0.00259454       0.00248375      -0.00630568
Cu      12.56465986      17.94951946      12.56465986       0.00073424       0.00132677       0.00073424      -0.00695033
Cu       5.38495144       8.97480552      14.35958050       0.00391366       0.00110998      -0.00167548      -0.00706206
Cu       7.18198406      10.76970000      14.35741594       0.00888132       0.00000000      -0.00888132      -0.00729093
Cu       8.97557650      12.56382350      14.35800141       0.00619983      -0.00619983      -0.00631537      -0.00512793
Cu      10.76970000      14.35741594      14.35741594      -0.00000000      -0.00888132      -0.00888132      -0.00729093
Cu      12.56459448      16.15444856      14.35958050      -0.00110998      -0.00391366      -0.00167548      -0.00706206
Cu      14.35959940      17.94950060      14.35959940       0.00003793      -0.00003793       0.00003793      -0.00703824
Cu       7.17981950       8.97480552      16.15444856       0.00167548       0.00110998      -0.00391366      -0.00706206
Cu       8.97404501      10.76970000      16.15527833      -0.00248375      -0.00000000       0.00259454      -0.00630568
Cu      10.76970000      12.56535499      16.15527833      -0.00000000       0.00248375       0.00259454      -0.00630568
Cu      12.56459448      14.35958050      16.15444856      -0.00110998      -0.00167548      -0.00391366      -0.00706206
Cu      14.35959856      16.15455000      16.15455000      -0.00026555       0.00000000       0.00000000      -0.00697358
Cu      16.15455000      17.94950144      16.15455000       0.00000000       0.00026555       0.00000000      -0.00697358
Cu       8.97474014       8.97474014      17.94951946      -0.00073424      -0.00073424       0.00132677      -0.00695033
Cu      10.76970000      10.76970000      17.94940619       0.00000000      -0.00000000      -0.00040624      -0.00736083
Cu      12.56465986      12.56465986      17.94951946       0.00073424       0.00073424       0.00132677      -0.00695033
Cu      14.35959940      14.35959940      17.94950060       0.00003793       0.00003793      -0.00003793      -0.00703824
Cu      16.15455000      16.15455000      17.94950144       0.00000000      -0.00000000       0.00026555      -0.00697358
Cu      17.94950060      17.94950060      17.94950060      -0.00003793      -0.00003793      -0.00003793      -0.00703824
215
Lattice="0.0 10.7697 10.7697 10.7697 0.0 10.7697 10.7697 10.7697 0.0" Properties=species:S:1:pos:R:3:forces:R:3:energies:R:1 config_type=bulk_vac_images virial="0.0006367101308376701 0.0006367101308490776 -8.174206278095549e-05 7.017417755665928e-17 -1.7385853509080149e-16 0.0001734205425022218" energy=-0.09198765865757075 stress="0.0006367101308376701 0.0001734205425022218 -1.7385853509080149e-16 0.0001734205425022218 0.0006367101308490776 7.017417755665928e-17 -1.7385853509080149e-16 7.017417755665928e-17 -8.174206278095549e-05" free_energy=-0.09198765865757075 pbc="T T T"
Cu      -0.00010524      -0.00010524       0.00000000      -0.00091736      -0.00091736      -0.00000000      -0.00703072
Cu       1.79472291       1.79472291       0.00000000       0.00016172       0.00016172      -0.00000000      -0.00708031
Cu       3.58964859       3.58964859       0.00000000       0.00067808       0.00067808      -0.00000000      -0.00627201
Cu       5.38457335       5.38457335       0.00000000       0.00031300       0.00031300      -0.00000000      -0.00716593
Cu       7.17950474       7.17950474      -0.00000000      -0.00145257      -0.00145257      -0.00000000      -0.00630712
Cu       8.97450457       8.97450457       0.00000000      -0.00170168      -0.00170168      -0.00000000      -0.00697482
Cu       1.79486733      -0.00022261       1.79508392       0.00006369      -0.00085972      -0.00165464      -0.00721805
Cu       3.59097012       1.79540461       1.79404449       0.00077003       0.00039170      -0.00113634      -0.00672421
Cu       5.38975775       3.58898334       1.78980604       0.00011942      -0.00030878       0.00041098      -0.00724896
Cu       7.18055440       5.38226648       1.79019208      -0.00020864      -0.00234387       0.00187561      -0.00671057
Cu       8.97440308       7.17486989       1.79066367      -0.00179286      -0.00061265       0.00123967      -0.00709324
Cu      10.76888493       8.97315253       1.79407290      -0.00127697      -0.00181232      -0.00113108      -0.00708910
Cu       3.59441265      -0.00114251       3.58476474      -0.00029204      -0.00055952      -0.00188110      -0.00711578
Cu       5.39241590       1.79658916       3.58349493      -0.00301066      -0.00056939       0.00276494      -0.00755412
Cu       7.17634661       3.59287987       3.59260471       0.00128400      -0.00383048       0.00096532      -0.00682006
Cu       8.97007049       5.38463080       3.59131246       0.00082561      -0.00537168      -0.00010848      -0.00697949
Cu      10.76782333       7.16978179       3.58186108      -0.00058475       0.00019600       0.00140222      -0.00707489
Cu      12.56583149       8.96934198       3.58412475      -0.00022216      -0.00138591      -0.00271245      -0.00725544
Cu       5.39052981      -0.00211095       5.37714267      -0.00805576      -0.00047771       0.00629159      -0.00666686
Cu       7.16752167       1.79683715       5.39826310       0.00200210      -0.00082153      -0.00181549      -0.00616920
Cu       8.96563636       3.59722044       5.39860670       0.00166537      -0.00457097      -0.00223639      -0.00659086