ITEM: TIMESTEP
0
ITEM: NUMBER OF ATOMS
215
ITEM: BOX BOUNDS xy xz yz pp pp pp
0.0000000000000000e+00 3.0674292167872437e+01 7.6685730419681075e+00
0.0000000000000000e+00 1.7709810840322373e+01 7.6685730419681075e+00
0.0000000000000000e+00 1.2522727338722982e+01 4.4274527100805914e+00
ITEM: ATOMS id type element x y z fx fy fz c_energy
1 1 Cu 0 0 0 -4.94201e-07 -9.51091e-08 -2.69009e-07 -3.54
2 1 Cu 1.2781 0.737909 2.08712 -2.04836e-14 -3.16414e-15 7.77156e-15 -3.54
3 1 Cu 2.55619 1.47582 4.17424 7.97027e-06 4.60164e-06 1.30154e-05 -3.54
4 1 Cu 3.83429 2.21373 6.26136 -1.37374e-06 -6.02911e-07 -1.70529e-06 -3.54
5 1 Cu 5.11238 2.95164 8.34848 -1.25866e-05 2.11617e-06 5.98544e-06 -3.54
6 1 Cu 6.39048 3.68954 10.4356 -1.83878e-05 -1.23314e-06 -3.48786e-06 -3.54
7 1 Cu 1.2781 2.21373 0 -6.45317e-15 -1.249e-15 7.76115e-15 -3.54
8 1 Cu 2.55619 2.95164 2.08712 -3.9177e-05 8.79412e-05 6.21838e-05 -3.54
9 1 Cu 3.83429 3.68954 4.17424 -0.000538577 0.000731192 0.000256092 -3.54
10 1 Cu 5.11238 4.42745 6.26136 -0.000653261 0.0005743 2.47197e-05 -3.54
11 1 Cu 6.39048 5.16536 8.34848 -0.000194177 0.000189378 -4.58076e-06 -3.54
12 1 Cu 7.66857 5.90327 10.4356 -3.93596e-05 2.29261e-05 -9.27668e-06 -3.54
13 1 Cu 2.55619 4.42745 0 1.27211e-05 1.48213e-05 8.70941e-08 -3.54
14 1 Cu 19.1714 5.16536 2.08712 -0.000553353 0.000518125 0.000614691 -3.54
15 1 Cu 5.11238 5.90327 4.17424 -0.00157252 0.000837361 0.000559469 -3.54
16 1 Cu 6.39048 6.64118 6.26136 -0.000866199 0.000361496 0.000171378 -3.54
17 1 Cu 23.0057 7.37909 8.34848 -0.000271103 0.000112106 4.36215e-06 -3.54
18 1 Cu 24.2838 8.117 10.4356 6.68912e-05 1.21831e-05 -5.66876e-05 -3.54
19 1 Cu 3.83429 6.64118 0 0.000156054 -1.74182e-05 -6.03032e-05 -3.54
20 1 Cu 5.11238 7.37909 2.08712 -0.00065617 0.000176438 0.00050753 -3.54
21 1 Cu 21.7276 8.117 4.17424 -0.000758791 8.89748e-05 0.000236014 -3.54
22 1 Cu 7.66857 8.85491 6.26136 -0.000132293 3.11368e-05 9.91054e-05 -3.54
23 1 Cu 8.94667 9.59281 8.34848 0.000793415 -9.72001e-05 -0.00028341 -3.54
24 1 Cu 10.2248 10.3307 10.4356 0.000597785 -0.000181932 -0.000498936 -3.54
25 1 Cu 5.11238 8.85491 0 0.000171311 -0.000169151 -0.000167322 -3.54
26 1 Cu 21.7276 9.59281 2.08712 -7.62139e-05 -1.75655e-05 4.14638e-05 -3.54
27 1 Cu 23.0057 10.3307 4.17424 -2.01089e-06 -8.63776e-06 1.74026e-05 -3.54
28 1 Cu 8.94667 11.0686 6.26136 0.000928139 -0.000301742 -2.66729e-06 -3.54
29 1 Cu 10.2248 11.8065 8.34848 0.00148479 -0.000888013 -0.000702734 -3.54
30 1 Cu 26.84 12.5444 10.4356 0.000677384 -0.000469937 -0.000479711 -3.54
31 1 Cu 6.39048 11.0686 0 1.65521e-05 -3.37768e-05 -2.55222e-05 -3.54
32 1 Cu 23.0057 11.8065 2.08712 4.63449e-14 -1.55431e-15 -6.99441e-15 -3.54
33 1 Cu 24.2838 12.5444 4.17424 9.57478e-05 -5.528e-05 3.01959e-05 -3.54
34 1 Cu 10.2248 13.2824 6.26136 0.000689463 -0.000644077 -9.69564e-06 -3.54
35 1 Cu 11.5029 14.0203 8.34848 0.000512106 -0.000653479 -0.00025278 -3.54
36 1 Cu 12.781 14.7582 10.4356 0.000137884 -0.000203113 -6.91594e-05 -3.54
37 1 Cu 2.55619 0 0 4.94201e-07 -9.51091e-08 -2.69009e-07 -3.54
38 1 Cu 3.83429 0.737909 2.08712 5.6634e-05 -7.79353e-05 6.20806e-05 -3.54
39 1 Cu 5.11238 1.47582 4.17424 0.000363942 -0.000832017 0.000256092 -3.54
40 1 Cu 6.39048 2.21373 6.26136 0.000170829 -0.000852759 2.42848e-05 -3.54
41 1 Cu 7.66857 2.95164 8.34848 6.84304e-05 -0.000261597 -5.95027e-06 -3.54
42 1 Cu 8.94667 3.68954 10.4356 6.69008e-07 -4.52642e-05 -9.27668e-06 -3.54
43 1 Cu 3.83429 2.21373 0 7.06332e-05 4.02095e-05 -9.58108e-05 -3.54
44 1 Cu 5.11238 2.95164 2.08712 1.97075e-05 1.13781e-05 -1.84352e-05 -3.54
45 1 Cu 6.39048 3.68954 4.17424 -1.01953e-05 -5.88628e-06 2.46871e-06 -3.54
46 1 Cu 7.66857 4.42745 6.26136 1.54827e-06 8.93895e-07 3.03442e-06 -3.54
47 1 Cu 8.94667 5.16536 8.34848 8.56012e-05 4.94219e-05 -3.01968e-05 -3.54
48 1 Cu 10.2248 5.90327 10.4356 0.000222398 0.000127831 -0.00017884 -3.54
49 1 Cu 12.781 8.85491 12.5227 0.00120902 0.000253722 -0.00131738 -3.54
50 1 Cu 6.39048 5.16536 2.08712 0.000154157 4.61946e-07 -0.000346444 -3.54
51 1 Cu 7.66857 5.90327 4.17424 5.91745e-06 1.2808e-05 -3.28506e-06 -3.54
52 1 Cu 8.94667 6.64118 6.26136 0.000943678 0.000302849 -2.32739e-06 -3.54
53 1 Cu 10.2248 7.37909 8.34848 0.00444385 0.00124476 -0.00194343 -3.54
54 1 Cu 11.5029 8.117 10.4356 0.00299966 0.000442158 -0.0031595 -3.54
55 1 Cu 6.39048 6.64118 0 0.00482392 -0.00264102 -0.00736669 -3.54045
56 1 Cu 7.66857 7.37909 2.08712 0.000129778 -0.000148475 -0.000413232 -3.54
57 1 Cu 8.94667 8.117 4.17424 0.000956744 9.95041e-05 0.000280057 -3.54
58 1 Cu 10.2248 8.85491 6.26136 0.0216234 -5.47618e-05 -0.000154109 -3.54048
59 1 Cu 11.5029 9.59281 8.34848 0.00790332 -0.00059784 -0.00180507 -3.5366
60 1 Cu 12.781 10.3307 10.4356 0.0112473 -0.00530645 -0.0150694 -3.54023
61 1 Cu 15.3371 13.2824 12.5227 0.000645229 -0.00134787 -0.00149616 -3.54
62 1 Cu 8.94667 9.59281 2.08712 9.61597e-05 -4.89533e-05 1.19409e-05 -3.54
63 1 Cu 10.2248 10.3307 4.17424 0.00486026 -0.00138915 0.00192143 -3.54
64 1 Cu 11.5029 11.0686 6.26136 0.000913957 -0.00133218 -0.000694562 -3.53661
65 1 Cu 12.781 11.8065 8.34848 0.0038357 -0.00162365 -0.00246576 -3.53807
66 1 Cu 14.0591 12.5444 10.4356 0.000539344 -0.00332206 -0.00258768 -3.53839
67 1 Cu 16.6152 15.4961 12.5227 2.15116e-06 -0.000137478 -9.45768e-05 -3.54
68 1 Cu 10.2248 11.8065 2.08712 0.000248798 -0.000143644 0.000203142 -3.54
69 1 Cu 11.5029 12.5444 4.17424 0.00347278 -0.00345637 0.00180925 -3.54
70 1 Cu 12.781 13.2824 6.26136 0.0100843 -0.0175669 -7.09488e-05 -3.54048
71 1 Cu 14.0591 14.0203 8.34848 0.00196696 -0.00494948 -0.00109038 -3.54004
72 1 Cu 15.3371 14.7582 10.4356 0.000556704 -0.00155971 -0.00042066 -3.54
73 1 Cu 5.11238 0 0 2.73221e-05 -1.0854e-06 -1.31826e-05 -3.54
74 1 Cu 6.39048 0.737909 2.08712 0.000172033 -0.000738471 0.000614153 -3.54
75 1 Cu 7.66857 1.47582 4.17424 -6.10849e-05 -0.00178052 0.000559469 -3.54
76 1 Cu 16.6152 15.4961 6.26136 -0.000120035 -0.000930898 0.000171378 -3.54
77 1 Cu 10.2248 2.95164 8.34848 -3.79703e-05 -0.00029074 4.63116e-06 -3.54
78 1 Cu 19.1714 16.9719 10.4356 6.02484e-05 5.1838e-05 -5.66876e-05 -3.54
79 1 Cu 14.0591 6.64118 12.5227 0.000824239 0.000917862 -0.00131902 -3.54
80 1 Cu 7.66857 2.95164 2.08712 7.74785e-05 0.000133273 -0.000346444 -3.54
81 1 Cu 8.94667 3.68954 4.17424 1.40508e-05 -1.27934e-06 -3.28506e-06 -3.54
82 1 Cu 10.2248 4.42745 6.26136 0.000734114 0.000665824 -2.32739e-06 -3.54
83 1 Cu 11.5029 5.16536 8.34848 0.00330193 0.00322495 -0.00194179 -3.54
84 1 Cu 12.781 5.90327 10.4356 0.00189094 0.00236252 -0.0031595 -3.54
85 1 Cu 7.66857 4.42745 0 -0.000484143 -0.00027952 -0.00068877 -3.53734
86 1 Cu 8.94667 5.16536 2.08712 6.61961e-05 3.82184e-05 -0.000992275 -3.54
87 1 Cu 10.2248 5.90327 4.17424 0.00178889 0.00103281 0.000711605 -3.54
88 1 Cu 11.5029 6.64118 6.26136 0.00265611 0.00153351 -0.000362823 -3.53661
89 1 Cu 12.781 7.37909 8.34848 -0.0336542 -0.0194308 0.0274227 -3.51838
90 1 Cu 14.0591 8.117 10.4356 -0.00204644 -0.00118209 -0.00198737 -3.53545
91 1 Cu 16.6152 11.0686 12.5227 0.000776961 0.00088307 0.00226452 -3.53658
92 1 Cu 10.2248 7.37909 2.08712 0.000636403 4.79029e-05 0.000147269 -3.54
93 1 Cu 11.5029 8.117 4.17424 0.00331065 0.000571212 0.00155967 -3.53661
94 1 Cu 12.781 8.85491 6.26136 0.183024 0.000780654 0.00346988 -3.45654
95 1 Cu 14.0591 9.59281 8.34848 -0.505594 -0.00659409 -0.0274766 -3.41461
96 1 Cu 15.3371 10.3307 10.4356 0.131329 -0.0821545 -0.227642 -3.53386
97 1 Cu 17.8933 13.2824 12.5227 -0.000507706 -0.00169171 -0.00181803 -3.54
98 1 Cu 11.5029 9.59281 2.08712 0.00366739 -0.000690607 0.00400329 -3.54
99 1 Cu 12.781 10.3307 4.17424 -0.0389359 0.0210741 -0.0327848 -3.51468
100 1 Cu 14.0591 11.0686 6.26136 0.112619 -0.171866 0.0164017 -3.46739
101 1 Cu 15.3371 11.8065 8.34848 0.0480484 -0.0142136 0.0487965 -3.51662
102 1 Cu 16.6152 12.5444 10.4356 -0.00102334 0.0166223 0.0105004 -3.52818
103 1 Cu 11.5029 11.0686 0 4.00197e-05 -8.13657e-05 5.77791e-05 -3.54
104 1 Cu 12.781 11.8065 2.08712 0.00237104 -0.00282631 0.00395347 -3.54
105 1 Cu 14.0591 12.5444 4.17424 0.000202024 -0.00174321 -0.000113272 -3.53661
106 1 Cu 15.3371 13.2824 6.26136 -0.00107587 -0.00445935 0.00154453 -3.53807
107 1 Cu 16.6152 14.0203 8.34848 -0.000194774 -0.00374605 -0.00198822 -3.53839
108 1 Cu 17.8933 14.7582 10.4356 -0.000442918 -0.00197611 -0.000607284 -3.54
109 1 Cu 15.3371 4.42745 12.5227 5.53106e-05 0.000139069 -7.38419e-05 -3.54
110 1 Cu 8.94667 0.737909 2.08712 -0.000175285 -0.000656552 0.000507324 -3.54
111 1 Cu 17.8933 14.7582 4.17424 -0.000302341 -0.00070162 0.000236014 -3.54
112 1 Cu 11.5029 2.21373 6.26136 -3.91178e-05 -0.000130101 9.92086e-05 -3.54
113 1 Cu 12.781 2.95164 8.34848 0.000320656 0.000740409 -0.000270141 -3.54
114 1 Cu 14.0591 3.68954 10.4356 0.00489961 0.000608663 -0.000498936 -3.54048
115 1 Cu 8.94667 2.21373 0 0.000124773 0.00549739 -0.00736723 -3.54045
116 1 Cu 10.2248 2.95164 2.08712 -6.3694e-05 0.000186628 -0.000413232 -3.54
117 1 Cu 11.5029 3.68954 4.17424 0.000564545 0.000778813 0.000280057 -3.54
118 1 Cu 12.781 4.42745 6.26136 0.0107644 0.0187537 -0.000153571 -3.54048
119 1 Cu 14.0591 5.16536 8.34848 0.00343392 0.00713402 -0.0017918 -3.5366
120 1 Cu 15.3371 5.90327 10.4356 0.00102052 0.0123794 -0.0150694 -3.54023
121 1 Cu 17.8933 8.85491 12.5227 0.00115324 0.000231333 0.00226452 -3.53658
122 1 Cu 11.5029 5.16536 2.08712 0.000359687 0.00052719 0.000147269 -3.54
123 1 Cu 12.781 5.90327 4.17424 0.00215001 0.0025815 0.00155967 -3.53661
124 1 Cu 14.0591 6.64118 6.26136 0.0921881 0.158113 0.00346999 -3.45654
125 1 Cu 15.3371 7.37909 8.34848 -0.258508 -0.434561 -0.0274763 -3.41461
126 1 Cu 16.6152 8.117 10.4356 -0.0054833 0.154811 -0.227642 -3.53386
127 1 Cu 19.1714 11.0686 12.5227 -0.0064796 -0.003741 -0.0105811 -3.54048
128 1 Cu 12.781 7.37909 2.08712 0.0110603 0.00638566 0.0180614 -3.54048
129 1 Cu 14.0591 8.117 4.17424 0.0926677 0.0535017 0.151326 -3.45114
130 1 Cu 16.4022 9.46983 8.00063 -2.81997e-14 4.32987e-15 1.35447e-14 -3.29569
131 1 Cu 17.8933 10.3307 10.4356 -0.169455 -0.0978351 -0.276719 -3.52268
132 1 Cu 20.4495 13.2824 12.5227 9.27529e-05 -0.000265593 0.000591024 -3.54
133 1 Cu 14.0591 9.59281 2.08712 0.000943672 -0.000795289 0.00349219 -3.53661
134 1 Cu 15.3371 10.3307 4.17424 0.00238244 -0.103513 0.150963 -3.45654
135 1 Cu 16.6152 11.0686 6.26136 -0.0186274 0.274556 -0.425083 -3.41461
136 1 Cu 17.8933 11.8065 8.34848 -0.138437 -0.237904 -0.00737889 -3.53386
137 1 Cu 19.1714 12.5444 10.4356 0.0013392 0.00120775 0.00180551 -3.53658
138 1 Cu 14.0591 11.0686 0 0.000171217 -0.000344637 0.000908168 -3.54
139 1 Cu 15.3371 11.8065 2.08712 -9.43776e-05 -0.0125933 0.0175777 -3.54048
140 1 Cu 16.6152 12.5444 4.17424 -0.00112867 -0.00581246 0.00556952 -3.5366
141 1 Cu 17.8933 13.2824 6.26136 -0.00924047 -0.0171351 0.00165879 -3.54023
142 1 Cu 19.1714 14.0203 8.34848 -0.00448975 -0.00801808 0.000238435 -3.54045
143 1 Cu 20.4495 14.7582 10.4356 -0.000243555 -0.000354635 -0.000101773 -3.54
144 1 Cu 25.5619 17.7098 12.5227 -5.35312e-05 0.000228529 -0.000180592 -3.54
145 1 Cu 19.1714 14.0203 2.08712 -5.33191e-05 -5.74106e-05 4.09257e-05 -3.54
146 1 Cu 20.4495 14.7582 4.17424 -8.48596e-06 2.5774e-06 1.74026e-05 -3.54
147 1 Cu 14.0591 2.21373 6.26136 0.000202753 0.000954853 -2.12927e-06 -3.54
148 1 Cu 15.3371 2.95164 8.34848 -3.42782e-05 0.00173466 -0.000689195 -3.54
149 1 Cu 24.2838 16.9719 10.4356 -6.87801e-05 0.000821886 -0.000479711 -3.54
150 1 Cu 19.1714 6.64118 12.5227 -0.000844676 0.0012304 -0.00149779 -3.54
151 1 Cu 12.781 2.95164 2.08712 5.6851e-06 0.000107753 1.19409e-05 -3.54
152 1 Cu 14.0591 3.68954 4.17424 0.00122709 0.00490368 0.00192143 -3.54
153 1 Cu 15.3371 4.42745 6.26136 -0.000696884 0.0014575 -0.000694024 -3.53661
154 1 Cu 16.6152 5.16536 8.34848 0.000511733 0.00413132 -0.00246248 -3.53807
155 1 Cu 17.8933 5.90327 10.4356 -0.00259975 0.00211387 -0.00258768 -3.53839
156 1 Cu 20.4495 8.85491 12.5227 -0.00171892 0.000406171 -0.00181803 -3.54
157 1 Cu 14.0591 5.16536 2.08712 0.00123561 0.00352136 0.00400329 -3.54
158 1 Cu 15.3371 5.90327 4.17424 -0.00121721 -0.0442565 -0.0327848 -3.51468
159 1 Cu 16.6152 6.64118 6.26136 -0.0925309 0.183464 0.0164017 -3.46739
160 1 Cu 17.8933 7.37909 8.34848 0.011715 0.0487174 0.0487968 -3.51662
161 1 Cu 19.1714 8.117 10.4356 0.0138837 -0.00919797 0.0105004 -3.52818
162 1 Cu 21.7276 11.0686 12.5227 -0.000184128 0.000213218 0.000591293 -3.54
163 1 Cu 15.3371 7.37909 2.08712 -0.000216967 0.00121492 0.00349229 -3.53661
164 1 Cu 16.6152 8.117 4.17424 -0.0884535 0.0538197 0.150963 -3.45654
165 1 Cu 17.8933 8.85491 6.26136 0.228459 -0.15341 -0.425083 -3.41461
166 1 Cu 19.1714 9.59281 8.34848 -0.275249 -0.000937968 -0.00737889 -3.53386
167 1 Cu 20.4495 10.3307 10.4356 0.00171542 0.000555904 0.00180551 -3.53658
168 1 Cu 15.3371 8.85491 0 -1.54373e-05 -8.34206e-06 0.00218443 -3.54
169 1 Cu 16.6152 9.59281 2.08712 -0.00118161 -0.000682206 0.00277067 -3.53661
170 1 Cu 17.8933 10.3307 4.17424 0.0336084 0.0194038 -0.0274974 -3.51838
171 1 Cu 19.1714 11.0686 6.26136 -0.000940536 -0.000543019 -0.00289034 -3.53545
172 1 Cu 20.4495 11.8065 8.34848 -0.000400998 -0.000231516 -0.000756659 -3.53734
173 1 Cu 21.7276 12.5444 10.4356 -0.000832255 -0.000479932 -0.000258693 -3.54
174 1 Cu 16.6152 11.0686 0 -0.00017675 -0.000341713 0.000909221 -3.54
175 1 Cu 17.8933 11.8065 2.08712 -0.0023053 -0.00265186 0.00356683 -3.54
176 1 Cu 19.1714 12.5444 4.17424 -0.00283506 -0.00292638 0.00160448 -3.54
177 1 Cu 20.4495 13.2824 6.26136 -0.00122213 -0.0011499 0.000667638 -3.54
178 1 Cu 21.7276 14.0203 8.34848 -0.000283137 -0.000249693 1.22436e-05 -3.54
179 1 Cu 23.0057 14.7582 10.4356 -1.77087e-05 1.79336e-05 9.77431e-06 -3.54
180 1 Cu 28.1181 17.7098 12.5227 -2.91015e-05 2.88487e-05 -3.71534e-05 -3.54
181 1 Cu 21.7276 14.0203 2.08712 -6.31949e-08 -3.64856e-08 -1.03197e-07 -3.54
182 1 Cu 23.0057 14.7582 4.17424 -3.25353e-11 0.00011056 3.01959e-05 -3.54
183 1 Cu 16.6152 2.21373 6.26136 -0.000213056 0.000919204 -9.48925e-06 -3.54
184 1 Cu 25.5619 16.234 8.34848 -0.000304251 0.000776181 -0.00024088 -3.54
185 1 Cu 26.84 16.9719 10.4356 -0.00487336 0.000235042 -6.91594e-05 -3.54048
186 1 Cu 21.7276 6.64118 12.5227 -0.000118313 7.02214e-05 -9.48458e-05 -3.54
187 1 Cu 15.3371 2.95164 2.08712 -1.698e-10 0.000287287 0.000203142 -3.54
188 1 Cu 16.6152 3.68954 4.17424 -0.00125691 0.0047357 0.00180925 -3.54
189 1 Cu 17.8933 4.42745 6.26136 -0.010171 0.0175166 -7.04108e-05 -3.54048
190 1 Cu 19.1714 5.16536 8.34848 -0.00330306 0.00416927 -0.00107738 -3.54004
191 1 Cu 20.4495 5.90327 10.4356 -0.00108052 0.00124847 -0.00042066 -3.54
192 1 Cu 23.0057 8.85491 12.5227 -5.24617e-05 7.41823e-05 5.94176e-05 -3.54
193 1 Cu 16.6152 5.16536 2.08712 -0.0012623 0.00346644 0.00395401 -3.54
194 1 Cu 17.8933 5.90327 4.17424 -0.00140865 0.00104656 -0.000113272 -3.53661
195 1 Cu 19.1714 6.64118 6.26136 -0.00439984 0.00129787 0.00154463 -3.53807
196 1 Cu 20.4495 7.37909 8.34848 -0.00334173 0.00170387 -0.00198795 -3.53839
197 1 Cu 21.7276 8.117 10.4356 -0.00193338 0.000604084 -0.000607284 -3.54
198 1 Cu 16.6152 6.64118 0 -0.000220982 0.000325288 0.000921437 -3.54
199 1 Cu 17.8933 7.37909 2.08712 -0.0109533 0.00621513 0.0175782 -3.54048
200 1 Cu 19.1714 8.117 4.17424 -0.00559807 0.00192878 0.00556952 -3.5366
201 1 Cu 20.4495 8.85491 6.26136 -0.0194597 0.000565068 0.00165879 -3.54023
202 1 Cu 21.7276 9.59281 8.34848 -0.00918923 0.000120705 0.000238166 -3.54045
203 1 Cu 23.0057 10.3307 10.4356 -0.000445153 -3.36072e-05 -0.000101773 -3.54
204 1 Cu 17.8933 8.85491 0 -0.000386149 1.94203e-05 0.000912229 -3.54
205 1 Cu 19.1714 9.59281 2.08712 -0.00344939 -0.000670542 0.00356726 -3.54
206 1 Cu 20.4495 10.3307 4.17424 -0.00395185 -0.000992049 0.00160448 -3.54
207 1 Cu 21.7276 11.0686 6.26136 -0.0016069 -0.000483442 0.000667638 -3.54
208 1 Cu 23.0057 11.8065 8.34848 -0.000359816 -0.000119199 1.06051e-05 -3.54
209 1 Cu 24.2838 12.5444 10.4356 -1.94361e-06 -1.02948e-05 9.77431e-06 -3.54
210 1 Cu 26.84 15.4961 12.5227 -5.31893e-05 -2.13258e-05 6.98556e-05 -3.54
211 1 Cu 20.4495 11.8065 2.08712 -0.000220155 -0.000126916 0.000181427 -3.54
212 1 Cu 21.7276 12.5444 4.17424 -0.000101444 -5.85688e-05 4.46898e-05 -3.54
213 1 Cu 23.0057 13.2824 6.26136 -2.16215e-05 -1.24832e-05 1.53097e-05 -3.54
214 1 Cu 24.2838 14.0203 8.34848 5.41414e-06 3.88673e-06 -9.73835e-06 -3.54
215 1 CITEM: TIMESTEP
87
ITEM: NUMBER OF ATOMS
215
ITEM: BOX BOUNDS xy xz yz pp pp pp
0.0000000000000000e+00 3.0674292167872437e+01 7.6685730419681075e+00
0.0000000000000000e+00 1.7709810840322373e+01 7.6685730419681075e+00
0.0000000000000000e+00 1.2522727338722982e+01 4.4274527100805914e+00
ITEM: ATOMS id type element x y z fx fy fz c_energy
1 1 Cu -0.000560323 -0.000345962 -0.000878362 -1.58936e-06 -9.03197e-07 -2.59844e-06 -3.54001
2 1 Cu 1.27874 0.738231 2.08809 1.59117e-06 9.30006e-07 2.61857e-06 -3.53996
3 1 Cu 2.55746 1.47651 4.17622 1.84789e-06 1.06822e-06 3.04251e-06 -3.53922
4 1 Cu 3.83478 2.21399 6.26213 5.64214e-07 3.30182e-07 9.32639e-07 -3.53917
5 1 Cu 5.1119 2.95151 8.34805 -6.26013e-07 -3.71276e-07 -1.0456e-06 -3.54041
6 1 Cu 6.38914 3.68895 10.4339 -1.83232e-06 -1.06725e-06 -3.02432e-06 -3.53852
7 1 Cu 1.2756 2.21355 0.00165216 -5.56951e-06 -1.46928e-06 4.1051e-06 -3.54018
8 1 Cu 2.55486 2.95314 2.09273 -1.47221e-06 2.58498e-08 2.05269e-06 -3.53984
9 1 Cu 3.82849 3.69436 4.18442 2.86645e-06 9.54654e-07 -1.05794e-06 -3.54001
10 1 Cu 5.10266 4.4293 6.26767 3.97322e-06 9.89892e-07 -3.0542e-06 -3.539
11 1 Cu 6.37707 5.16651 8.34825 2.17147e-06 4.98687e-07 -2.54849e-06 -3.53997
12 1 Cu 7.66295 5.90224 10.4343 -2.40718e-06 -7.36316e-07 1.18584e-07 -3.53958
13 1 Cu 2.54594 4.43057 0.0110475 -5.37982e-07 -3.29349e-06 -6.72959e-07 -3.54034
14 1 Cu 19.1643 5.1721 2.10493 -5.78919e-07 -8.49041e-08 -1.47285e-06 -3.54039
15 1 Cu 5.11688 5.90286 4.17763 6.95156e-07 1.73611e-06 -2.80562e-06 -3.54035
16 1 Cu 6.3921 6.6379 6.25797 1.84576e-06 2.67645e-06 -8.16269e-07 -3.54002
17 1 Cu 22.987 7.37812 8.34538 6.2522e-07 6.38177e-07 7.02937e-07 -3.54104
18 1 Cu 24.2691 8.11716 10.4387 1.28578e-06 -2.38799e-06 1.96838e-06 -3.54015
19 1 Cu 3.81905 6.64711 0.0174008 1.78855e-06 -2.81833e-06 -1.8616e-06 -3.53844
20 1 Cu 5.12502 7.37499 2.07394 -1.77919e-06 2.75926e-06 1.10994e-06 -3.53892
21 1 Cu 21.7525 8.112 4.1612 -3.89485e-06 3.67418e-06 9.04693e-07 -3.53974
22 1 Cu 7.6921 8.85376 6.25754 -3.22292e-06 1.97671e-06 -4.98132e-07 -3.53844
23 1 Cu 8.9284 9.59364 8.35249 2.59524e-06 -2.27943e-06 2.1487e-07 -3.53892
24 1 Cu 10.2002 10.3358 10.4493 3.7448e-06 -3.74299e-06 -1.14335e-06 -3.53974
25 1 Cu 5.11888 8.84887 -0.01672 4.48526e-07 -2.31652e-08 1.03947e-06 -3.54105
26 1 Cu 21.7376 9.58986 2.07631 2.63207e-07 3.30863e-06 5.64268e-07 -3.54014
27 1 Cu 23.0208 10.3303 4.17106 -1.2354e-06 2.26905e-06 -2.23476e-06 -3.54034
28 1 Cu 8.96669 11.0694 6.2647 -9.28983e-07 -8.03555e-07 -1.01321e-06 -3.54039
29 1 Cu 10.2252 11.8097 8.35309 -2.14164e-06 -2.55701e-06 4.57192e-07 -3.54035
30 1 Cu 26.8355 12.546 10.4343 -8.1281e-07 -2.08058e-06 2.49984e-06 -3.54002
31 1 Cu 6.39189 11.0672 -0.00541127 1.09024e-06 -1.2947e-08 -2.2963e-06 -3.53955
32 1 Cu 23.0083 11.8067 2.08559 5.69521e-06 1.5697e-06 -3.89159e-06 -3.54017
33 1 Cu 24.2895 12.5454 4.17574 2.40857e-06 5.07948e-07 -5.05511e-07 -3.53984
34 1 Cu 10.2374 13.2814 6.26227 -2.02983e-06 -4.67087e-07 2.45052e-06 -3.54001
35 1 Cu 11.5134 14.0189 8.34352 -4.18731e-06 -1.11045e-06 2.69869e-06 -3.539
36 1 Cu 12.7876 14.7534 10.4252 -3.00254e-06 -9.9814e-07 1.15153e-06 -3.54001
37 1 Cu 2.55491 -0.00216878 0.00165173 -4.08532e-06 -4.05444e-06 4.09444e-06 -3.54018
38 1 Cu 3.83499 0.735949 2.09272 -7.2097e-07 -1.28081e-06 2.04859e-06 -3.53985
39 1 Cu 5.11367 1.4684 4.18444 2.25964e-06 2.00155e-06 -1.06047e-06 -3.54001
40 1 Cu 6.3872 2.20444 6.26772 2.84313e-06 2.92888e-06 -3.06031e-06 -3.53901
41 1 Cu 7.66281 2.93956 8.34832 1.52529e-06 1.59374e-06 -2.56124e-06 -3.54
42 1 Cu 8.94305 3.6852 10.4343 -1.85731e-06 -1.71168e-06 1.03032e-07 -3.53961
43 1 Cu 3.83001 2.21118 0.00874444 -5.43568e-06 -3.12613e-06 8.68053e-07 -3.54164
44 1 Cu 5.10892 2.94965 2.10544 -1.53031e-06 -8.87381e-07 -2.64119e-06 -3.53978
45 1 Cu 6.38855 3.68845 4.18304 2.5552e-06 1.4718e-06 -4.6667e-06 -3.54006
46 1 Cu 7.66204 4.42371 6.26194 4.70233e-06 2.70033e-06 -1.72875e-06 -3.5398
47 1 Cu 8.93142 5.15657 8.34681 1.34566e-06 7.68651e-07 2.42782e-06 -3.53983
48 1 Cu 10.2164 5.89832 10.4378 -2.05852e-06 -1.16712e-06 5.58738e-06 -3.54107
49 1 Cu 12.7661 8.85471 12.5525 -6.45937e-07 -2.07957e-06 -5.32558e-06 -3.53775
50 1 Cu 6.39462 5.16481 2.09269 -2.08201e-06 -9.20545e-07 -4.23522e-06 -3.5402
51 1 Cu 7.67873 5.90226 4.17005 -7.10503e-07 1.04157e-06 -2.38433e-08 -3.53983
52 1 Cu 8.94839 6.63789 6.25774 2.50115e-06 1.64303e-06 3.17007e-06 -3.54016
53 1 Cu 10.1977 7.37002 8.35163 4.34885e-06 9.75202e-07 3.54733e-06 -3.5381
54 1 Cu 11.4798 8.11549 10.4507 3.28729e-06 -1.42655e-06 -1.63666e-06 -3.54362
55 1 Cu 6.39723 6.63284 -0.00982985 -7.17169e-07 -1.59986e-06 -3.13541e-06 -3.54152
56 1 Cu 7.6831 7.37614 2.07463 -3.17966e-06 -7.77212e-08 1.63049e-06 -3.54001
57 1 Cu 8.96714 8.11686 4.16924 -3.0873e-06 -2.92372e-07 1.91056e-06 -3.53987
58 1 Cu 10.2462 8.85138 6.26461 2.13398e-06 1.55842e-07 2.11599e-06 -3.54171
59 1 Cu 11.4613 9.5878 8.36444 1.47634e-06 2.2613e-08 -2.36878e-06 -3.53306
60 1 Cu 12.745 10.334 10.4762 2.0366e-06 1.11475e-06 3.88834e-08 -3.52835
61 1 Cu 15.3393 13.2781 12.5126 -5.94542e-07 -1.00452e-06 1.02196e-06 -3.53858
62 1 Cu 8.95321 9.59297 2.08331 6.05238e-07 -3.32075e-06 5.73495e-07 -3.53939
63 1 Cu 10.236 10.3316 4.17794 -1.04559e-06 -1.56715e-06 2.74192e-07 -3.53808
64 1 Cu 11.5251 11.0574 6.2708 -1.90712e-06 1.45542e-06 -7.61096e-07 -3.53941
65 1 Cu 12.7859 11.7954 8.35179 -3.47146e-06 5.15194e-06 3.05429e-07 -3.53854
66 1 Cu 14.0677 12.5238 10.4191 -7.79185e-07 1.8599e-06 4.4932e-07 -3.5399
67 1 Cu 16.6144 15.4947 12.5208 1.47211e-06 -4.60337e-06 -1.47691e-06 -3.53994
68 1 Cu 10.2265 11.8066 2.08925 3.35813e-06 -3.84762e-06 1.3864e-06 -3.53981
69 1 Cu 11.5087 12.5412 4.17912 2.02188e-07 3.09761e-07 4.83884e-07 -3.53813
70 1 Cu 12.7958 13.2604 6.26403 -1.96526e-06 5.15949e-06 1.26277e-06 -3.53885
71 1 Cu 14.0752 13.9891 8.34622 -3.34329e-06 3.6983e-06 -1.47402e-06 -3.54059
72 1 Cu 15.3371 14.7521 10.4313 -7.02103e-07 1.96571e-07 -7.38808e-07 -3.53662
73 1 Cu 5.11017 -0.0105155 0.0109818 -3.14537e-06 1.185e-06 -6.71713e-07 -3.54037
74 1 Cu 6.39279 0.728438 2.10497 -3.64372e-07 -4.69175e-07 -1.47774e-06 -3.54039
75 1 Cu 7.67047 1.47996 4.1777 1.85803e-06 -2.62832e-07 -2.82168e-06 -3.54035
76 1 Cu 16.6132 15.4992 6.25805 3.24827e-06 2.42026e-07 -8.39046e-07 -3.54003
77 1 Cu 10.2147 2.936 8.34545 8.54784e-07 1.99644e-07 6.83676e-07 -3.54105
78 1 Cu 19.1646 16.9591 10.4388 -1.46478e-06 2.31898e-06 1.9622e-06 -3.54019
79 1 Cu 14.0515 6.62846 12.5526 -2.13367e-06 4.60909e-07 -5.33562e-06 -3.53776
80 1 Cu 7.67016 2.95556 2.09273 -1.84237e-06 -1.35232e-06 -4.25014e-06 -3.54021
81 1 Cu 8.95087 3.69887 4.17008 5.42811e-07 -1.12718e-06 -4.4443e-08 -3.53983
82 1 Cu 10.2228 4.43061 6.25776 2.67911e-06 1.32912e-06 3.15998e-06 -3.54016
83 1 Cu 11.4815 5.14645 8.35163 3.0025e-06 3.28408e-06 3.5435e-06 -3.53807
84 1 Cu 12.7683 5.88393 10.4507 3.88027e-07 3.55996e-06 -1.64127e-06 -3.54364
85 1 Cu 7.66535 4.42566 0.00198962 -1.92148e-07 -1.27416e-07 -5.04911e-06 -3.53708
86 1 Cu 8.95643 5.17102 2.0768 -4.29788e-06 -2.47035e-06 1.78751e-06 -3.54014
87 1 Cu 10.2397 5.91191 4.17011 -3.0052e-06 -1.7287e-06 4.23342e-06 -3.53992
88 1 Cu 11.5103 6.64546 6.26754 3.7192e-06 2.14473e-06 1.7833e-06 -3.53765
89 1 Cu 12.7333 7.35152 8.37575 5.88963e-06 3.40493e-06 -4.47882e-06 -3.52722
90 1 Cu 14.0188 8.09378 10.4942 5.2363e-06 3.01196e-06 -3.73278e-06 -3.51597
91 1 Cu 16.6165 11.0637 12.4993 -6.59044e-07 -1.53743e-07 3.41251e-06 -3.53822
92 1 Cu 10.2378 7.38275 2.08045 -3.61e-06 -3.10112e-06 3.25958e-06 -3.54009
93 1 Cu 11.5291 8.12604 4.1883 -3.11268e-06 -1.78296e-06 -3.861e-07 -3.53824
94 1 Cu 12.8362 8.85652 6.30259 4.05424e-06 2.76107e-06 -4.56747e-06 -3.51138
95 1 Cu 13.955 9.56702 8.45017 7.82677e-06 4.1985e-06 -6.70752e-06 -3.40491
96 1 Cu 15.3319 10.3023 10.4086 5.84571e-06 3.4785e-06 -1.78845e-06 -3.45925
97 1 Cu 17.8906 13.2797 12.5175 2.42875e-06 -2.51235e-06 1.19003e-06 -3.53802
98 1 Cu 11.5075 9.59435 2.0939 9.47971e-07 -3.42765e-06 -1.27711e-06 -3.5375
99 1 Cu 12.7934 10.3321 4.19044 -2.50877e-06 -1.88552e-07 -3.21072e-06 -3.52282
100 1 Cu 14.1045 11.0201 6.2827 -4.7485e-06 8.48861e-06 1.9715e-07 -3.51259
101 1 Cu 15.3737 11.7098 8.32485 -5.2349e-06 8.86557e-06 -1.21867e-07 -3.48999
102 1 Cu 16.6087 12.5373 10.4225 1.36662e-06 2.16365e-06 3.21572e-06 -3.51588
103 1 Cu 11.4997 11.0632 0.00415626 2.3881e-06 -2.28581e-06 -8.86294e-07 -3.53936
104 1 Cu 12.7835 11.8024 2.09795 1.12357e-06 -2.96269e-07 -1.49473e-06 -3.53808
105 1 Cu 14.0733 12.5286 4.1903 -1.46639e-06 1.7157e-06 -1.11749e-06 -3.53941
106 1 Cu 15.3463 13.2737 6.2613 -2.73469e-06 5.57665e-06 -3.0593e-07 -3.53854
107 1 Cu 16.6137 13.9938 8.34037 -7.07889e-07 1.87971e-06 3.74876e-07 -3.5399
108 1 Cu 17.8876 14.7493 10.432 1.41409e-06 1.45083e-07 -6.38217e-07 -3.53859
109 1 Cu 15.3348 4.41141 12.5403 -1.55929e-06 2.93972e-06 -1.86281e-06 -3.53842
110 1 Cu 8.94945 0.750995 2.07407 1.50455e-06 -2.93093e-06 1.10141e-06 -3.53891
111 1 Cu 17.9015 14.7823 4.16127 1.24501e-06 -5.19911e-06 8.86954e-07 -3.53974
112 1 Cu 11.5137 2.23471 6.25761 1.15343e-07 -3.79394e-06 -4.99915e-07 -3.53845
113 1 Cu 12.7727 2.93542 8.35258 -7.00817e-07 3.39421e-06 2.2546e-07 -3.53894
114 1 Cu 14.0522 3.66567 10.4493 -1.40273e-06 5.11705e-06 -1.13322e-06 -3.5402
115 1 Cu 8.94281 2.22391 -0.0097494 -1.74939e-06 1.46003e-07 -3.15166e-06 -3.54151
116 1 Cu 10.2295 2.96574 2.07467 -1.6748e-06 -2.7074e-06 1.61245e-06 -3.54002
117 1 Cu 11.513 3.70735 4.16926 -1.79743e-06 -2.52702e-06 1.90845e-06 -3.53987
118 1 Cu 12.7887 4.44776 6.26463 1.20069e-06 1.76241e-06 2.12265e-06 -3.54171
119 1 Cu 14.034 5.13186 8.36445 7.45852e-07 1.27947e-06 -2.37013e-06 -3.53306
120 1 Cu 15.3221 5.87065 10.4763 1.97552e-06 1.19008e-06 2.25675e-08 -3.52832
121 1 Cu 17.8896 8.85857 12.4993 -4.68423e-07 -5.08908e-07 3.40614e-06 -3.53822
122 1 Cu 11.5126 5.17487 2.08045 -4.51362e-06 -1.56433e-06 3.25935e-06 -3.54009
123 1 Cu 12.8019 5.92144 4.1883 -3.10445e-06 -1.81649e-06 -3.85254e-07 -3.53824
124 1 Cu 14.0881 6.68816 6.30259 4.41056e-06 2.13224e-06 -4.5728e-06 -3.51137
125 1 Cu 15.2628 7.30185 8.45017 7.55459e-06 4.68837e-06 -6.72281e-06 -3.40491
126 1 Cu 16.5879 8.12685 10.4086 5.95186e-06 3.28709e-06 -1.79779e-06 -3.45925
127 1 Cu 19.1619 11.0631 12.5071 2.07602e-06 1.2015e-06 3.4056e-06 -3.54122
128 1 Cu 12.7938 7.3865 2.10808 -1.73657e-06 -1.00567e-06 -2.84499e-06 -3.54113
129 1 Cu 14.103 8.14234 4.24594 -5.03484e-06 -2.91126e-06 -8.2434e-06 -3.49356
130 1 Cu 15.7386 9.08671 6.91696 -1.60463e-05 -9.2441e-06 -2.61919e-05 -3.31765
131 1 Cu 17.8593 10.3111 10.38 5.66074e-06 3.2463e-06 9.25167e-06 -3.45789
132 1 Cu 20.442 13.2741 12.5329 4.44608e-06 1.5408e-06 -3.33456e-06 -3.54009
133 1 Cu 14.0653 9.59034 2.11747 7.15224e-07 4.31351e-07 -3.51708e-06 -3.53824
134 1 Cu 15.3699 10.3194 4.23383 -5.32141e-06 -2.65014e-06 3.09407e-06 -3.51138
135 1 Cu 16.7132 11.1595 6.19811 -7.90798e-06 -4.87371e-06 6.1437e-06 -3.40491
136 1 Cu 17.8878 11.7779 8.32174 -3.48263e-06 -1.91371e-06 5.8233e-06 -3.45925
137 1 Cu 19.1552 12.5294 10.4265 2.86225e-06 1.87195e-06 5.19159e-07 -3.53822
138 1 Cu 14.0551 11.0544 0.0149777 1.71335e-06 2.48711e-06 -2.0135e-06 -3.53988
139 1 Cu 15.3419 11.7934 2.10407 1.63276e-06 -1.24444e-07 2.52689e-06 -3.54172
140 1 Cu 16.6311 12.5727 4.14334 -1.94255e-06 -1.95143e-06 4.24489e-07 -3.53306
141 1 Cu 17.9246 13.3245 6.24714 -6.01567e-07 -4.17481e-07 2.18519e-06 -3.52835
142 1 Cu 19.1683 14.0062 8.34684 -1.63511e-06 -2.14464e-06 -2.40317e-06 -3.54152
143 1 Cu 20.4412 14.742 10.4419 1.36437e-06 2.53741e-06 -2.09714e-06 -3.54004
144 1 Cu 25.5598 17.7186 12.5061 2.03606e-07 3.73446e-07 1.03335e-06 -3.54103
145 1 Cu 19.1739 14.0304 2.07634 2.99696e-06 -1.42824e-06 5.58364e-07 -3.54014
146 1 Cu 20.4567 14.7714 4.17106 1.36242e-06 -2.20828e-06 -2.22444e-06 -3.54034
147 1 Cu 14.0697 2.23068 6.26467 -1.15202e-06 -3.97944e-07 -9.95235e-07 -3.54039
148 1 Cu 15.3402 2.95024 8.35297 -3.29897e-06 -5.46707e-07 4.6629e-07 -3.54033
149 1 Cu 24.2829 16.9672 10.4343 -2.21804e-06 3.33784e-07 2.50231e-06 -3.53995
150 1 Cu 19.1688 6.64528 12.5126 -1.17552e-06 -2.77527e-08 1.01907e-06 -3.53859
151 1 Cu 12.7844 2.95722 2.0833 -2.59511e-06 2.18837e-06 5.87336e-07 -3.53939
152 1 Cu 14.0655 3.69885 4.17793 -1.87675e-06 -1.2963e-07 2.91265e-07 -3.53808
153 1 Cu 15.3386 4.45233 6.27078 3.13608e-07 -2.35758e-06 -7.55515e-07 -3.53941
154 1 Cu 16.6081 5.17518 8.35182 2.73721e-06 -5.56507e-06 2.99234e-07 -3.5386
155 1 Cu 17.8797 5.9213 10.4192 1.23375e-06 -1.62944e-06 4.42552e-07 -3.53988
156 1 Cu 20.4458 8.85386 12.5175 -9.79196e-07 3.36225e-06 1.20388e-06 -3.53802
157 1 Cu 14.0627 5.1686 2.09389 -2.51222e-06 2.52929e-06 -1.27194e-06 -3.5375
158 1 Cu 15.3446 5.9133 4.19043 -1.42266e-06 -2.0763e-06 -3.2177e-06 -3.52282
159 1 Cu 16.5959 6.70474 6.28269 4.97437e-06 -8.32815e-06 1.86815e-07 -3.51259
160 1 Cu 17.8278 7.45915 8.32483 5.08531e-06 -8.96876e-06 -1.27784e-07 -3.49
161 1 Cu 19.1619 8.11501 10.4225 2.5779e-06 7.91128e-08 3.21774e-06 -3.51587
162 1 Cu 21.7167 11.0662 12.5329 3.55645e-06 3.08701e-06 -3.33755e-06 -3.54009
163 1 Cu 15.3381 7.38573 2.11746 7.32431e-07 3.92714e-07 -3.52661e-06 -3.53824
164 1 Cu 16.6218 8.15101 4.23381 -4.95583e-06 -3.27994e-06 3.07824e-06 -3.51137
165 1 Cu 18.021 8.89429 6.19807 -8.18856e-06 -4.39066e-06 6.14786e-06 -3.4049
166 1 Cu 19.1437 9.60237 8.32172 -3.36027e-06 -2.08133e-06 5.82763e-06 -3.45926
167 1 Cu 20.4283 10.3242 10.4265 3.06647e-06 1.53836e-06 5.27259e-07 -3.53822
168 1 Cu 15.3288 8.85005 0.0148964 4.44515e-06 2.56912e-06 -1.86065e-06 -3.53993
169 1 Cu 16.6178 9.59431 2.09724 2.10869e-07 1.14636e-07 4.65042e-06 -3.53765
170 1 Cu 17.9315 10.3528 4.13139 -5.62377e-06 -3.23996e-06 4.93517e-06 -3.52722