initial_new.lmp (written by ASE) 

215 	 atoms 
1  atom types
0.0      15.337146083936219  xlo xhi
0.0      13.282358130241782  ylo yhi
0.0      12.522727338722982  zlo zhi
     7.6685730419681075      7.6685730419681075      4.4274527100805914  xy xz yz


Atoms 

     1   1                       0                       0                       0
     2   1      1.2780955069946847     0.73790878501343193       2.087121223120497
     3   1      2.5561910139893693      1.4758175700268639      4.1742424462409939
     4   1      3.8342865209840538      2.2137263550402957      6.2613636693614909
     5   1      5.1123820279787386      2.9516351400537277      8.3484848924819879
     6   1      6.3904775349734235      3.6895439250671593      10.435606115602486
     7   1      1.2780955069946847       2.213726355040297                       0
     8   1      2.5561910139893693      2.9516351400537291      2.0871212231204965
     9   1      3.8342865209840538      3.6895439250671607      4.1742424462409939
    10   1      5.1123820279787386      4.4274527100805932        6.26136366936149
    11   1      6.3904775349734235      5.1653614950940252      8.3484848924819879
    12   1      7.6685730419681084      5.9032702801074581      10.435606115602486
    13   1      2.5561910139893693       4.427452710080594                       0
    14   1      3.8342865209840538      5.1653614950940261       2.087121223120497
    15   1      5.1123820279787386      5.9032702801074581      4.1742424462409931
    16   1      6.3904775349734226      6.6411790651208902      6.2613636693614909
    17   1      7.6685730419681075      7.3790878501343213      8.3484848924819879
    18   1      8.9466685489627924      8.1169966351477534      10.435606115602486
    19   1      3.8342865209840538      6.6411790651208911                       0
    20   1      5.1123820279787386       7.379087850134324      2.0871212231204961
    21   1      6.3904775349734226      8.1169966351477552      4.1742424462409948
    22   1      7.6685730419681075      8.8549054201611863      6.2613636693614909
    23   1      8.9466685489627924      9.5928142051746175      8.3484848924819879
    24   1      10.224764055957477       10.33072299018805      10.435606115602482
    25   1      5.1123820279787386      8.8549054201611881                       0
    26   1      6.3904775349734235       9.592814205174621      2.0871212231204979
    27   1      7.6685730419681075      10.330722990188052      4.1742424462409939
    28   1      8.9466685489627924      11.068631775201483      6.2613636693614918
    29   1      10.224764055957477      11.806540560214916      8.3484848924819861
    30   1      11.502859562952162      12.544449345228347      10.435606115602484
    31   1      6.3904775349734235      11.068631775201487                       0
    32   1      7.6685730419681084       11.80654056021492       2.087121223120497
    33   1      8.9466685489627924      12.544449345228351      4.1742424462409931
    34   1      10.224764055957477      13.282358130241782      6.2613636693614891
    35   1      11.502859562952162      14.020266915255213      8.3484848924819843
    36   1      12.780955069946847      14.758175700268646      10.435606115602486
    37   1      2.5561910139893693 -3.3306690738754696e-16 -2.2204460492503131e-16
    38   1      3.8342865209840538      0.7379087850134316      2.0871212231204965
    39   1      5.1123820279787386      1.4758175700268636      4.1742424462409939
    40   1      6.3904775349734235      2.2137263550402952        6.26136366936149
    41   1      7.6685730419681084      2.9516351400537268      8.3484848924819879
    42   1      8.9466685489627942      3.6895439250671589      10.435606115602486
    43   1      3.8342865209840538       2.213726355040297                       0
    44   1      5.1123820279787386      2.9516351400537291       2.087121223120497
    45   1      6.3904775349734226      3.6895439250671607      4.1742424462409939
    46   1      7.6685730419681075      4.4274527100805923      6.2613636693614909
    47   1      8.9466685489627924      5.1653614950940243      8.3484848924819879
    48   1      10.224764055957479      5.9032702801074572      10.435606115602486
    49   1      5.1123820279787386       4.427452710080594 -8.8817841970012523e-16
    50   1      6.3904775349734226      5.1653614950940252       2.087121223120497
    51   1      7.6685730419681075      5.9032702801074581      4.1742424462409931
    52   1      8.9466685489627924      6.6411790651208893      6.2613636693614909
    53   1      10.224764055957477      7.3790878501343204      8.3484848924819879
    54   1      11.502859562952164      8.1169966351477534      10.435606115602486
    55   1      6.3904775349734235      6.6411790651208911                       0
    56   1      7.6685730419681075      7.3790878501343231      2.0871212231204961
    57   1      8.9466685489627924      8.1169966351477552      4.1742424462409939
    58   1      10.224764055957477      8.8549054201611863      6.2613636693614918
    59   1      11.502859562952162      9.5928142051746175      8.3484848924819879
    60   1      12.780955069946849       10.33072299018805      10.435606115602484
    61   1      7.6685730419681084      8.8549054201611881 -1.7763568394002505e-15
    62   1      8.9466685489627924       9.592814205174621       2.087121223120497
    63   1      10.224764055957477      10.330722990188052      4.1742424462409931
    64   1      11.502859562952162      11.068631775201483      6.2613636693614891
    65   1      12.780955069946847      11.806540560214916      8.3484848924819843
    66   1      14.059050576941534      12.544449345228347      10.435606115602482
    67   1      8.9466685489627942      11.068631775201487 -8.8817841970012523e-16
    68   1      10.224764055957479       11.80654056021492       2.087121223120497
    69   1      11.502859562952164      12.544449345228351      4.1742424462409931
    70   1      12.780955069946849      13.282358130241782      6.2613636693614874
    71   1      14.059050576941534      14.020266915255213      8.3484848924819843
    72   1      15.337146083936219      14.758175700268646      10.435606115602486
    73   1      5.1123820279787386 -6.6613381477509392e-16 -4.4408920985006262e-16
    74   1      6.3904775349734226     0.73790878501343138       2.087121223120497
    75   1      7.6685730419681075      1.4758175700268632      4.1742424462409931
    76   1      8.9466685489627924      2.2137263550402944      6.2613636693614909
    77   1      10.224764055957477      2.9516351400537273      8.3484848924819879
    78   1      11.502859562952162      3.6895439250671584      10.435606115602486
    79   1      6.3904775349734226      2.2137263550402966 -8.8817841970012523e-16
    80   1      7.6685730419681075      2.9516351400537286      2.0871212231204961
    81   1      8.9466685489627924      3.6895439250671602      4.1742424462409931
    82   1      10.224764055957477      4.4274527100805923      6.2613636693614909
    83   1       11.50285956295216      5.1653614950940252      8.3484848924819879
    84   1      12.780955069946845      5.9032702801074564      10.435606115602486
    85   1      7.6685730419681075       4.427452710080594                       0
    86   1      8.9466685489627924      5.1653614950940252       2.087121223120497
    87   1      10.224764055957477      5.9032702801074581      4.1742424462409939
    88   1      11.502859562952162      6.6411790651208893      6.2613636693614918
    89   1      12.780955069946845      7.3790878501343213      8.3484848924819879
    90   1       14.05905057694153      8.1169966351477534      10.435606115602486
    91   1      8.9466685489627924      6.6411790651208911 -8.8817841970012523e-16
    92   1      10.224764055957477      7.3790878501343231      2.0871212231204952
    93   1      11.502859562952162      8.1169966351477552      4.1742424462409931
    94   1      12.780955069946847      8.8549054201611863      6.2613636693614909
    95   1       14.05905057694153      9.5928142051746175      8.3484848924819843
    96   1      15.337146083936215       10.33072299018805      10.435606115602482
    97   1      10.224764055957477      8.8549054201611881 -1.7763568394002505e-15
    98   1       11.50285956295216      9.5928142051746192      2.0871212231204961
    99   1      12.780955069946845       10.33072299018805      4.1742424462409939
   100   1       14.05905057694153      11.068631775201482        6.26136366936149
   101   1      15.337146083936215      11.806540560214916      8.3484848924819861
   102   1        16.6152415909309      12.544449345228347      10.435606115602484
   103   1      11.502859562952162      11.068631775201485                       0
   104   1      12.780955069946845       11.80654056021492      2.0871212231204961
   105   1       14.05905057694153      12.544449345228351      4.1742424462409939
   106   1      15.337146083936215      13.282358130241782      6.2613636693614882
   107   1        16.6152415909309      14.020266915255213      8.3484848924819861
   108   1      17.893337097925585      14.758175700268644      10.435606115602488
   109   1      7.6685730419681075 -8.8817841970012523e-16 -8.8817841970012523e-16
   110   1      8.9466685489627924     0.73790878501343093      2.0871212231204952
   111   1      10.224764055957477      1.4758175700268623      4.1742424462409931
   112   1       11.50285956295216      2.2137263550402948      6.2613636693614909
   113   1      12.780955069946845      2.9516351400537268      8.3484848924819843
   114   1       14.05905057694153      3.6895439250671589      10.435606115602482
   115   1      8.9466685489627924      2.2137263550402961                       0
   116   1      10.224764055957477      2.9516351400537282      2.0871212231204961
   117   1      11.502859562952162      3.6895439250671593      4.1742424462409939
   118   1      12.780955069946845      4.4274527100805923        6.26136366936149
   119   1       14.05905057694153      5.1653614950940243      8.3484848924819879
   120   1      15.337146083936215      5.9032702801074572      10.435606115602484
   121   1      10.224764055957477       4.427452710080594 -1.7763568394002505e-15
   122   1      11.502859562952162      5.1653614950940252      2.0871212231204952
   123   1      12.780955069946847      5.9032702801074564      4.1742424462409931
   124   1       14.05905057694153      6.6411790651208893      6.2613636693614909
   125   1      15.337146083936215      7.3790878501343204      8.3484848924819843
   126   1        16.6152415909309      8.1169966351477534      10.435606115602482
   127   1       11.50285956295216      6.6411790651208911 -8.8817841970012523e-16
   128   1      12.780955069946845      7.3790878501343222      2.0871212231204961
   129   1       14.05905057694153      8.1169966351477534      4.1742424462409939
   130   1        16.6152415909309      9.5928142051746175      8.3484848924819861
   131   1      17.893337097925585       10.33072299018805      10.435606115602484
   132   1      12.780955069946845      8.8549054201611881 -8.8817841970012523e-16
   133   1       14.05905057694153      9.5928142051746192       2.087121223120497
   134   1      15.337146083936215       10.33072299018805      4.1742424462409948
   135   1        16.6152415909309      11.068631775201482      6.2613636693614891
   136   1      17.893337097925585      11.806540560214916      8.3484848924819879
   137   1       19.17143260492027      12.544449345228347      10.435606115602482
   138   1       14.05905057694153      11.068631775201485                       0
   139   1      15.337146083936215      11.806540560214918      2.0871212231204979
   140   1        16.6152415909309      12.544449345228349      4.1742424462409957
   141   1      17.893337097925585      13.282358130241782        6.26136366936149
   142   1       19.17143260492027      14.020266915255213      8.3484848924819879
   143   1      20.449528111914955      14.758175700268644      10.435606115602486
   144   1      10.224764055957477 -1.3322676295501878e-15 -8.8817841970012523e-16
   145   1      11.502859562952162     0.73790878501343027      2.0871212231204961
   146   1      12.780955069946845      1.4758175700268628      4.1742424462409939
   147   1       14.05905057694153      2.2137263550402944        6.26136366936149
   148   1      15.337146083936215      2.9516351400537264      8.3484848924819861
   149   1        16.6152415909309      3.6895439250671576      10.435606115602484
   150   1      11.502859562952162      2.2137263550402961 -2.6645352591003757e-15
   151   1      12.780955069946847      2.9516351400537273      2.0871212231204952
   152   1       14.05905057694153      3.6895439250671598      4.1742424462409931
   153   1      15.337146083936215      4.4274527100805923      6.2613636693614874
   154   1        16.6152415909309      5.1653614950940234      8.3484848924819843
   155   1      17.893337097925585      5.9032702801074564      10.435606115602482
   156   1      12.780955069946845      4.4274527100805932 -1.7763568394002505e-15
   157   1       14.05905057694153      5.1653614950940243      2.0871212231204961
   158   1      15.337146083936215      5.9032702801074572      4.1742424462409922
   159   1        16.6152415909309      6.6411790651208893        6.26136366936149
   160   1      17.893337097925585      7.3790878501343204      8.3484848924819861
   161   1       19.17143260492027      8.1169966351477534      10.435606115602484
   162   1       14.05905057694153      6.6411790651208893 -8.8817841970012523e-16
   163   1      15.337146083936215      7.3790878501343213       2.087121223120497
   164   1        16.6152415909309      8.1169966351477534      4.1742424462409948
   165   1      17.893337097925585      8.8549054201611845      6.2613636693614891
   166   1       19.17143260492027      9.5928142051746157      8.3484848924819879
   167   1      20.449528111914955      10.330722990188049      10.435606115602482
   168   1      15.337146083936215      8.8549054201611881                       0
   169   1        16.6152415909309      9.5928142051746192      2.0871212231204979
   170   1      17.893337097925585       10.33072299018805      4.1742424462409939
   171   1       19.17143260492027      11.068631775201482        6.26136366936149
   172   1      20.449528111914955      11.806540560214916      8.3484848924819879
   173   1      21.727623618909639      12.544449345228346      10.435606115602486
   174   1        16.6152415909309      11.068631775201485                       0
   175   1      17.893337097925585      11.806540560214916      2.0871212231204979
   176   1       19.17143260492027      12.544449345228349      4.1742424462409939
   177   1      20.449528111914955       13.28235813024178        6.26136366936149
   178   1      21.727623618909639      14.020266915255212      8.3484848924819843
   179   1      23.005719125904324      14.758175700268644      10.435606115602486
   180   1      12.780955069946847 -2.2204460492503131e-15 -1.7763568394002505e-15
   181   1      14.059050576941534     0.73790878501342982      2.0871212231204952
   182   1      15.337146083936215      1.4758175700268614      4.1742424462409931
   183   1        16.6152415909309      2.2137263550402939      6.2613636693614874
   184   1      17.893337097925585      2.9516351400537251      8.3484848924819843
   185   1       19.17143260492027      3.6895439250671571      10.435606115602482
   186   1      14.059050576941534      2.2137263550402961 -2.6645352591003757e-15
   187   1      15.337146083936219      2.9516351400537277      2.0871212231204952
   188   1        16.6152415909309      3.6895439250671593      4.1742424462409931
   189   1      17.893337097925588      4.4274527100805923      6.2613636693614874
   190   1       19.17143260492027      5.1653614950940234      8.3484848924819843
   191   1      20.449528111914958      5.9032702801074564      10.435606115602482
   192   1      15.337146083936215      4.4274527100805923 -1.7763568394002505e-15
   193   1        16.6152415909309      5.1653614950940243      2.0871212231204961
   194   1      17.893337097925585      5.9032702801074564      4.1742424462409922
   195   1       19.17143260492027      6.6411790651208893      6.2613636693614882
   196   1      20.449528111914955      7.3790878501343196      8.3484848924819861
   197   1      21.727623618909639      8.1169966351477534      10.435606115602484
   198   1        16.6152415909309      6.6411790651208893                       0
   199   1      17.893337097925588      7.3790878501343213      2.0871212231204979
   200   1       19.17143260492027      8.1169966351477534      4.1742424462409957
   201   1      20.449528111914955      8.8549054201611845        6.26136366936149
   202   1      21.727623618909639      9.5928142051746157      8.3484848924819879
   203   1      23.005719125904324      10.330722990188049      10.435606115602486
   204   1      17.893337097925585      8.8549054201611863                       0
   205   1       19.17143260492027      9.5928142051746192      2.0871212231204979
   206   1      20.449528111914955       10.33072299018805      4.1742424462409939
   207   1      21.727623618909639      11.068631775201482        6.26136366936149
   208   1      23.005719125904324      11.806540560214913      8.3484848924819843
   209   1      24.283814632899009      12.544449345228344      10.435606115602482
   210   1       19.17143260492027      11.068631775201485 -1.7763568394002505e-15
   211   1      20.449528111914958      11.806540560214916      2.0871212231204961
   212   1      21.727623618909639      12.544449345228347      4.1742424462409922
   213   1      23.005719125904324       13.28235813024178      6.2613636693614882
   214   1      24.283814632899009       14.02026691525521      8.3484848924819861
   215   1      25.561910139893694      14.758175700268644      10.435606115602484
