LAMMPS (22 Dec 2022)
Running on 7 partitions of processors
    Step     MaxReplicaForce  MaxAtomForce      GradV0         GradV1         GradVc          EBF            EBR            RDT            RD1            PE1            RD2            PE2            RD3            PE3            RD4            PE4            RD5            PE5            RD6            PE6            RD7            PE7       
         0   3.4132589        2.0128873      0.59639731     0.59640134     3.4132589      1.2467816      1.2467816      2.556191       0              -759.79178     0.16666667     -759.49798     0.33333333     -758.86958     0.5            -758.54499     0.66666667     -758.86958     0.83333333     -759.49798     1              -759.79178     
        87   8.3516038e-05    6.8841901e-10  3.464872e-06   3.4634255e-06  6.3250381e-05  0.68584146     0.68584287     2.9243227      0              -759.82596     0.16667802     -759.68912     0.33334528     -759.32426     0.50000004     -759.14012     0.66665479     -759.32426     0.83332202     -759.68912     1              -759.82596     
Climbing replica = 4
    Step     MaxReplicaForce  MaxAtomForce      GradV0         GradV1         GradVc          EBF            EBR            RDT            RD1            PE1            RD2            PE2            RD3            PE3            RD4            PE4            RD5            PE5            RD6            PE6            RD7            PE7       
        87   0.0069078889     2.3871861e-05  0.0066282299   0.0066127207   0.0069078889   0.68580137     0.68580139     2.9243227      0              -759.82498     0.16667802     -759.68817     0.33334528     -759.32331     0.50000004     -759.13918     0.66665479     -759.32332     0.83332202     -759.68817     1              -759.82498     
       124   9.2400913e-05    2.9955768e-10  8.7866555e-05  8.4535502e-05  9.1112757e-05  0.68580097     0.68580097     2.9242187      0              -759.82498     0.16666252     -759.68817     0.33332977     -759.32334     0.50000092     -759.13918     0.66667061     -759.32334     0.83333693     -759.68817     1              -759.82498     
