LAMMPS (22 Dec 2022)
Running on 7 partitions of processors
Reading NEB coordinate file(s) ...
Setting up regular NEB ...
    Step     MaxReplicaForce  MaxAtomForce      GradV0         GradV1         GradVc          EBF            EBR            RDT            RD1            PE1            RD2            PE2            RD3            PE3            RD4            PE4            RD5            PE5            RD6            PE6            RD7            PE7       
         0   3.6302505        2.8042182      0.59635828     1.2723512      3.6349827      1.259429       1.1889145      2.6633445      0              -759.79081     0.16666667     -759.47243     0.33333333     -758.81498     0.5            -758.53138     0.66666667     -758.94447     0.83333333     -759.58559     1              -759.72029     
        94   9.4703595e-05    4.4609984e-09  4.5556195e-07  2.9385472e-06  0.0018155586   0.68579999     0.68579999     2.9255743      0              -759.82498     0.16671178     -759.68784     0.33340482     -759.32275     0.50007371     -759.13918     0.66672285     -759.32419     0.83336215     -759.68903     1              -759.82498     
Setting up climbing ...
Climbing replica = 4
    Step     MaxReplicaForce  MaxAtomForce      GradV0         GradV1         GradVc          EBF            EBR            RDT            RD1            PE1            RD2            PE2            RD3            PE3            RD4            PE4            RD5            PE5            RD6            PE6            RD7            PE7       
        94   0.0018155586     2.1371394e-06  4.5556196e-07  2.9385472e-06  0.0018155586   0.68579999     0.68579999     2.9255743      0              -759.82498     0.16671178     -759.68784     0.33340482     -759.32275     0.50007371     -759.13918     0.66672285     -759.32419     0.83336215     -759.68903     1              -759.82498     
       119   9.909291e-05     5.8491831e-09  6.5283215e-09  4.6443107e-08  7.5931964e-06  0.68580097     0.68580097     2.9256391      0              -759.82498     0.16654951     -759.68819     0.33312513     -759.32338     0.49973399     -759.13918     0.66645879     -759.32361     0.8332165      -759.68873     1              -759.82498     
