LAMMPS (22 Dec 2022)
Processor partition = 2
Reading data file ...
  triclinic box = (0 0 0) to (15.337146 13.282358 12.522727) with tilt (7.668573 7.668573 4.4274527)
WARNING: Triclinic box skew is large. LAMMPS will run inefficiently. (../domain.cpp:220)
  1 by 1 by 1 MPI processor grid
  reading atoms ...
  215 atoms
  read_data CPU = 0.002 seconds
Neighbor list info ...
  update: every = 1 steps, delay = 0 steps, check = yes
  max neighbors/atom: 2000, page size: 100000
  master list distance cutoff = 7.506786
  ghost atom cutoff = 7.506786
  binsize = 3.753393, bins = 9 5 4
  1 neighbor lists, perpetual/occasional/extra = 1 0 0
  (1) pair eam/alloy, perpetual
      attributes: half, newton on
      pair build: half/bin/newton/tri
      stencil: half/bin/3d/tri
      bin: standard
Setting up fire style minimization ...
  Unit style    : metal
  Current step  : 0
  Parameters for fire:
    dmax  delaystep dtgrow dtshrink alpha0 alphashrink tmax tmin   integrator   halfstepback   abcfire  
     0.1     20      1.1     0.5     0.25     0.99      10  0.02 eulerimplicit      yes          no     
Per MPI rank memory allocation (min/avg/max) = 8.78 | 8.78 | 8.78 Mbytes
   Step          Temp          PotEng         TotEng          Pxx            Pxy            Pxz            Pyy            Pyz            Pzz           Volume    
         0                     0    -758.869575339749    -758.869575339749      475.43306259464     405.584364287758    -2185.07232785099     22.3821029631035     -1261.5520966836    -1059.22925610519        2551.04820225
        87   1.7312127457958e-05    -759.324257451791    -759.324256972908    -1059.95521309954     464.962257678312    -1103.86203787585    -1580.44723532305    -637.110188579233      -1676.656661883        2551.04820225
Loop time of 0.0732383 on 1 procs for 87 steps with 215 atoms

99.9% CPU use with 1 MPI tasks x no OpenMP threads

Minimization stats:
  Stopping criterion = force tolerance
  Energy initial, next-to-last, final = 
     -758.869575339749  -759.324235835903  -759.324257451791
  Force two-norm initial, final = 2.6928251 7.6416403e-05
  Force max component initial, final = 1.2091 2.623774e-05
  Final line search alpha, max atom move = 0 0
  Iterations, force evaluations = 87 90

MPI task timing breakdown:
Section |  min time  |  avg time  |  max time  |%varavg| %total
---------------------------------------------------------------
Pair    | 0.036859   | 0.036859   | 0.036859   |   0.0 | 50.33
Neigh   | 0          | 0          | 0          |   0.0 |  0.00
Comm    | 0.00089211 | 0.00089211 | 0.00089211 |   0.0 |  1.22
Output  | 0          | 0          | 0          |   0.0 |  0.00
Modify  | 0.027774   | 0.027774   | 0.027774   |   0.0 | 37.92
Other   |            | 0.007714   |            |       | 10.53

Nlocal:            215 ave         215 max         215 min
Histogram: 1 0 0 0 0 0 0 0 0 0
Nghost:           1955 ave        1955 max        1955 min
Histogram: 1 0 0 0 0 0 0 0 0 0
Neighs:          14990 ave       14990 max       14990 min
Histogram: 1 0 0 0 0 0 0 0 0 0

Total # of neighbors = 14990
Ave neighs/atom = 69.72093
Neighbor list builds = 0
Dangerous builds = 0
Setting up fire style minimization ...
  Unit style    : metal
  Current step  : 87
  Parameters for fire:
    dmax  delaystep dtgrow dtshrink alpha0 alphashrink tmax tmin   integrator   halfstepback   abcfire  
     0.1     20      1.1     0.5     0.25     0.99      10  0.02 eulerimplicit      yes          no     
Per MPI rank memory allocation (min/avg/max) = 8.78 | 8.78 | 8.78 Mbytes
   Step          Temp          PotEng         TotEng          Pxx            Pxy            Pxz            Pyy            Pyz            Pzz           Volume    
        87                     0    -759.323314679796    -759.323314679796    -1044.04466065255     465.058888211193    -1103.93302899963    -1580.19607224688    -637.110749150451    -1676.40551548393        2551.04820225
       100  8.80417485315592e-05    -759.323327753915    -759.323325318533     -1043.9906131231     464.995850201672    -1103.87924307321    -1580.25008857892    -637.115611986125    -1676.43724229186        2551.04820225
       124  5.81134769817167e-08    -759.323339130434    -759.323339128826    -1043.76428839601      464.84602219905    -1103.71721050052    -1580.47456652888    -637.191501647011    -1676.51676636537        2551.04820225
Loop time of 0.0305146 on 1 procs for 37 steps with 215 atoms

99.7% CPU use with 1 MPI tasks x no OpenMP threads

Minimization stats:
  Stopping criterion = force tolerance
  Energy initial, next-to-last, final = 
     -759.323314679796  -759.323339336845  -759.323339130434
  Force two-norm initial, final = 0.0068913527 9.1604484e-05
  Force max component initial, final = 0.0048739663 1.64906e-05
  Final line search alpha, max atom move = 0 0
  Iterations, force evaluations = 37 39

MPI task timing breakdown:
Section |  min time  |  avg time  |  max time  |%varavg| %total
---------------------------------------------------------------
Pair    | 0.017498   | 0.017498   | 0.017498   |   0.0 | 57.34
Neigh   | 0          | 0          | 0          |   0.0 |  0.00
Comm    | 0.00034981 | 0.00034981 | 0.00034981 |   0.0 |  1.15
Output  | 0.0020819  | 0.0020819  | 0.0020819  |   0.0 |  6.82
Modify  | 0.0058696  | 0.0058696  | 0.0058696  |   0.0 | 19.24
Other   |            | 0.004715   |            |       | 15.45

Nlocal:            215 ave         215 max         215 min
Histogram: 1 0 0 0 0 0 0 0 0 0
Nghost:           1955 ave        1955 max        1955 min
Histogram: 1 0 0 0 0 0 0 0 0 0
Neighs:          14991 ave       14991 max       14991 min
Histogram: 1 0 0 0 0 0 0 0 0 0

Total # of neighbors = 14991
Ave neighs/atom = 69.725581
Neighbor list builds = 0
Dangerous builds = 0
Total wall time: 0:00:00
