 # File generated with Atomsk by hari on 2023-01-30 17:53:17
 
           4  atoms
           1  atom types
 
      0.000000000000       4.100000000000  xlo xhi
      0.000000000000       4.100000000000  ylo yhi
      0.000000000000       4.100000000000  zlo zhi
 
Masses
 
            1   63.54600000             # Cu
 
Atoms # atomic
 
         1    1        0.000000000000       0.000000000000       0.000000000000
         2    1        0.000000000000       2.050000000000       2.050000000000
         3    1        2.050000000000       0.000000000000       2.050000000000
         4    1        2.050000000000       2.050000000000       0.000000000000
