ITEM: TIMESTEP
0
ITEM: NUMBER OF ATOMS
4
ITEM: BOX BOUNDS pp pp pp
0.0000000000000000e+00 4.0999999999999996e+00
0.0000000000000000e+00 4.0999999999999996e+00
0.0000000000000000e+00 4.0999999999999996e+00
ITEM: ATOMS id type element x y z fx fy fz c_energy
1 1 Cu 0 0 0 0 1.30104e-18 6.245e-17 -2.99551
2 1 Cu 0 2.05 2.05 0 0 0 -2.99551
3 1 Cu 2.05 0 2.05 0 2.77556e-17 1.21431e-17 -2.99551
4 1 Cu 2.05 2.05 0 1.38778e-17 7.32921e-17 -2.20744e-16 -2.99551
ITEM: TIMESTEP
1
ITEM: NUMBER OF ATOMS
4
ITEM: BOX BOUNDS pp pp pp
0.0000000000000000e+00 4.0999999999999996e+00
0.0000000000000000e+00 4.0999999999999996e+00
0.0000000000000000e+00 4.0999999999999996e+00
ITEM: ATOMS id type element x y z fx fy fz c_energy
1 1 Cu 0 0 0 0 1.30104e-18 6.245e-17 -2.99551
2 1 Cu 0 2.05 2.05 0 0 0 -2.99551
3 1 Cu 2.05 0 2.05 0 2.77556e-17 1.21431e-17 -2.99551
4 1 Cu 2.05 2.05 0 1.38778e-17 7.32921e-17 -2.20744e-16 -2.99551
