bkCu (written by ASE) 

216 	 atoms 
1  atom types
0.0      15.231078096215954  xlo xhi
0.0      13.190500558347738  ylo yhi
0.0      12.436123189403503  zlo zhi
     7.6155390481079763      7.6155390481079763      4.3968335194492427  xy xz yz

Masses

             1   63.54600000             # Cu



Atoms 

     1   1                       0                       0                       0
     2   1      1.2692565080179961     0.73280558657487394      2.0726871982339174
     3   1      2.5385130160359921      1.4656111731497479      4.1453743964678349
     4   1      3.8077695240539882      2.1984167597246218      6.2180615947017515
     5   1      5.0770260320719842      2.9312223462994957      8.2907487929356698
     6   1      6.3462825400899803      3.6640279328743697      10.363435991169586
     7   1      1.2692565080179961      2.1984167597246231                       0
     8   1      2.5385130160359921      2.9312223462994971      2.0726871982339174
     9   1      3.8077695240539882       3.664027932874371      4.1453743964678349
    10   1      5.0770260320719842      4.3968335194492454      6.2180615947017515
    11   1      6.3462825400899803      5.1296391060241193       8.290748792935668
    12   1      7.6155390481079763      5.8624446925989933      10.363435991169586
    13   1      2.5385130160359921      4.3968335194492463                       0
    14   1      3.8077695240539882      5.1296391060241202       2.072687198233917
    15   1      5.0770260320719842      5.8624446925989941      4.1453743964678349
    16   1      6.3462825400899803      6.5952502791738681      6.2180615947017515
    17   1      7.6155390481079763       7.328055865748742      8.2907487929356698
    18   1      8.8847955561259724      8.0608614523236159      10.363435991169586
    19   1      3.8077695240539882      6.5952502791738699                       0
    20   1      5.0770260320719842      7.3280558657487438      2.0726871982339174
    21   1      6.3462825400899803      8.0608614523236177       4.145374396467834
    22   1      7.6155390481079763      8.7936670388984908      6.2180615947017523
    23   1      8.8847955561259724      9.5264726254733638      8.2907487929356698
    24   1      10.154052064143968       10.25927821204824      10.363435991169588
    25   1      5.0770260320719842      8.7936670388984925                       0
    26   1      6.3462825400899803      9.5264726254733674      2.0726871982339166
    27   1      7.6155390481079763       10.25927821204824       4.145374396467834
    28   1      8.8847955561259724      10.992083798623113      6.2180615947017523
    29   1      10.154052064143968      11.724889385197988      8.2907487929356698
    30   1      11.423308572161964      12.457694971772861      10.363435991169588
    31   1      6.3462825400899803      10.992083798623117                       0
    32   1      7.6155390481079763       11.72488938519799      2.0726871982339174
    33   1      8.8847955561259724      12.457694971772863      4.1453743964678349
    34   1      10.154052064143968      13.190500558347738      6.2180615947017532
    35   1      11.423308572161964      13.923306144922611      8.2907487929356698
    36   1      12.692565080179961      14.656111731497486      10.363435991169586
    37   1      2.5385130160359921 -3.3306690738754696e-16 -4.4408920985006262e-16
    38   1      3.8077695240539882      0.7328055865748736      2.0726871982339166
    39   1      5.0770260320719842      1.4656111731497474       4.145374396467834
    40   1      6.3462825400899803      2.1984167597246214      6.2180615947017515
    41   1      7.6155390481079763      2.9312223462994953       8.290748792935668
    42   1      8.8847955561259724      3.6640279328743692      10.363435991169586
    43   1      3.8077695240539882      2.1984167597246227 -4.4408920985006262e-16
    44   1      5.0770260320719842      2.9312223462994966       2.072687198233917
    45   1      6.3462825400899803      3.6640279328743706      4.1453743964678331
    46   1      7.6155390481079763      4.3968335194492445      6.2180615947017515
    47   1      8.8847955561259724      5.1296391060241184       8.290748792935668
    48   1      10.154052064143968      5.8624446925989924      10.363435991169585
    49   1      5.0770260320719842      4.3968335194492463                       0
    50   1      6.3462825400899803      5.1296391060241202      2.0726871982339174
    51   1      7.6155390481079763      5.8624446925989941       4.145374396467834
    52   1      8.8847955561259724      6.5952502791738681      6.2180615947017506
    53   1      10.154052064143968       7.328055865748742      8.2907487929356698
    54   1      11.423308572161964      8.0608614523236142      10.363435991169588
    55   1      6.3462825400899803      6.5952502791738699 -8.8817841970012523e-16
    56   1      7.6155390481079763      7.3280558657487429      2.0726871982339174
    57   1      8.8847955561259724      8.0608614523236177       4.145374396467834
    58   1      10.154052064143968      8.7936670388984908      6.2180615947017523
    59   1      11.423308572161964      9.5264726254733638      8.2907487929356698
    60   1      12.692565080179961      10.259278212048239      10.363435991169585
    61   1      7.6155390481079763      8.7936670388984925                       0
    62   1      8.8847955561259724      9.5264726254733674      2.0726871982339166
    63   1      10.154052064143968       10.25927821204824      4.1453743964678349
    64   1      11.423308572161964      10.992083798623113      6.2180615947017515
    65   1      12.692565080179961      11.724889385197988      8.2907487929356698
    66   1      13.961821588197957      12.457694971772861      10.363435991169588
    67   1      8.8847955561259724      10.992083798623117 -8.8817841970012523e-16
    68   1      10.154052064143968       11.72488938519799      2.0726871982339166
    69   1      11.423308572161964      12.457694971772863      4.1453743964678349
    70   1      12.692565080179961      13.190500558347738      6.2180615947017532
    71   1      13.961821588197957      13.923306144922611      8.2907487929356698
    72   1      15.231078096215953      14.656111731497486      10.363435991169586
    73   1      5.0770260320719842 -6.6613381477509392e-16 -8.8817841970012523e-16
    74   1      6.3462825400899803     0.73280558657487327      2.0726871982339161
    75   1      7.6155390481079763      1.4656111731497472      4.1453743964678331
    76   1      8.8847955561259724      2.1984167597246209      6.2180615947017515
    77   1      10.154052064143968      2.9312223462994949       8.290748792935668
    78   1      11.423308572161964      3.6640279328743688      10.363435991169585
    79   1      6.3462825400899803      2.1984167597246227 -8.8817841970012523e-16
    80   1      7.6155390481079763      2.9312223462994966      2.0726871982339166
    81   1      8.8847955561259724      3.6640279328743706       4.145374396467834
    82   1      10.154052064143968      4.3968335194492445      6.2180615947017506
    83   1      11.423308572161964      5.1296391060241184      8.2907487929356698
    84   1      12.692565080179961      5.8624446925989924      10.363435991169588
    85   1      7.6155390481079763      4.3968335194492454 -8.8817841970012523e-16
    86   1      8.8847955561259724      5.1296391060241202      2.0726871982339157
    87   1      10.154052064143968      5.8624446925989933       4.145374396467834
    88   1      11.423308572161964      6.5952502791738681      6.2180615947017506
    89   1      12.692565080179961      7.3280558657487411      8.2907487929356662
    90   1      13.961821588197957      8.0608614523236142      10.363435991169585
    91   1      8.8847955561259724       6.595250279173869                       0
    92   1      10.154052064143968      7.3280558657487429      2.0726871982339166
    93   1      11.423308572161964      8.0608614523236177      4.1453743964678331
    94   1      12.692565080179961      8.7936670388984908      6.2180615947017515
    95   1      13.961821588197957      9.5264726254733638      8.2907487929356698
    96   1      15.231078096215953      10.259278212048239      10.363435991169588
    97   1      10.154052064143968      8.7936670388984925                       0
    98   1      11.423308572161964      9.5264726254733674      2.0726871982339166
    99   1      12.692565080179961       10.25927821204824      4.1453743964678349
   100   1      13.961821588197957      10.992083798623113      6.2180615947017515
   101   1      15.231078096215953      11.724889385197988       8.290748792935668
   102   1      16.500334604233949      12.457694971772861      10.363435991169586
   103   1      11.423308572161964      10.992083798623115 -1.7763568394002505e-15
   104   1      12.692565080179961       11.72488938519799      2.0726871982339166
   105   1      13.961821588197957      12.457694971772863      4.1453743964678331
   106   1      15.231078096215953      13.190500558347736      6.2180615947017515
   107   1      16.500334604233949      13.923306144922609      8.2907487929356698
   108   1      17.769591112251945      14.656111731497486      10.363435991169585
   109   1      7.6155390481079763 -8.8817841970012523e-16 -1.3322676295501878e-15
   110   1      8.8847955561259724     0.73280558657487305      2.0726871982339166
   111   1      10.154052064143968       1.465611173149747       4.145374396467834
   112   1      11.423308572161964      2.1984167597246209      6.2180615947017506
   113   1      12.692565080179961      2.9312223462994949      8.2907487929356698
   114   1      13.961821588197957      3.6640279328743688      10.363435991169585
   115   1      8.8847955561259724      2.1984167597246222 -1.7763568394002505e-15
   116   1      10.154052064143968      2.9312223462994962      2.0726871982339157
   117   1      11.423308572161964      3.6640279328743701       4.145374396467834
   118   1      12.692565080179961      4.3968335194492436      6.2180615947017506
   119   1      13.961821588197957      5.1296391060241184      8.2907487929356662
   120   1      15.231078096215953      5.8624446925989915      10.363435991169585
   121   1      10.154052064143968      4.3968335194492454 -8.8817841970012523e-16
   122   1      11.423308572161964      5.1296391060241193      2.0726871982339166
   123   1      12.692565080179961      5.8624446925989933      4.1453743964678331
   124   1      13.961821588197957      6.5952502791738672      6.2180615947017515
   125   1      15.231078096215953      7.3280558657487411      8.2907487929356698
   126   1      16.500334604233949      8.0608614523236142      10.363435991169586
   127   1      11.423308572161964       6.595250279173869 -1.7763568394002505e-15
   128   1      12.692565080179961      7.3280558657487429      2.0726871982339166
   129   1      13.961821588197957      8.0608614523236177      4.1453743964678331
   130   1      15.231078096215953      8.7936670388984908      6.2180615947017497
   131   1      16.500334604233949      9.5264726254733638       8.290748792935668
   132   1      17.769591112251945      10.259278212048239      10.363435991169586
   133   1      12.692565080179961      8.7936670388984908 -1.7763568394002505e-15
   134   1      13.961821588197957      9.5264726254733656      2.0726871982339148
   135   1      15.231078096215953       10.25927821204824      4.1453743964678331
   136   1      16.500334604233949      10.992083798623113      6.2180615947017515
   137   1      17.769591112251945      11.724889385197987      8.2907487929356698
   138   1      19.038847620269941       12.45769497177286      10.363435991169588
   139   1      13.961821588197957      10.992083798623115 -1.7763568394002505e-15
   140   1      15.231078096215953       11.72488938519799      2.0726871982339166
   141   1      16.500334604233949      12.457694971772863      4.1453743964678331
   142   1      17.769591112251945      13.190500558347736      6.2180615947017497
   143   1      19.038847620269941      13.923306144922609       8.290748792935668
   144   1      20.308104128287937      14.656111731497486      10.363435991169583
   145   1      10.154052064143968 -1.3322676295501878e-15 -1.7763568394002505e-15
   146   1      11.423308572161964      0.7328055865748726      2.0726871982339157
   147   1      12.692565080179961      1.4656111731497465      4.1453743964678322
   148   1      13.961821588197957      2.1984167597246205      6.2180615947017506
   149   1      15.231078096215953      2.9312223462994944      8.2907487929356662
   150   1      16.500334604233949      3.6640279328743683      10.363435991169585
   151   1      11.423308572161964      2.1984167597246218 -8.8817841970012523e-16
   152   1      12.692565080179961      2.9312223462994957      2.0726871982339166
   153   1      13.961821588197957      3.6640279328743697      4.1453743964678331
   154   1      15.231078096215953      4.3968335194492436      6.2180615947017515
   155   1      16.500334604233949      5.1296391060241175       8.290748792935668
   156   1      17.769591112251945      5.8624446925989915      10.363435991169585
   157   1      12.692565080179961      4.3968335194492454 -1.7763568394002505e-15
   158   1      13.961821588197957      5.1296391060241193      2.0726871982339166
   159   1      15.231078096215953      5.8624446925989933      4.1453743964678331
   160   1      16.500334604233949      6.5952502791738672      6.2180615947017497
   161   1      17.769591112251945      7.3280558657487411       8.290748792935668
   162   1      19.038847620269941      8.0608614523236142      10.363435991169586
   163   1      13.961821588197957      6.5952502791738681 -1.7763568394002505e-15
   164   1      15.231078096215953       7.328055865748742      2.0726871982339148
   165   1      16.500334604233949      8.0608614523236159      4.1453743964678331
   166   1      17.769591112251945      8.7936670388984908      6.2180615947017515
   167   1      19.038847620269941      9.5264726254733638       8.290748792935668
   168   1      20.308104128287937      10.259278212048237      10.363435991169585
   169   1      15.231078096215953      8.7936670388984908 -1.7763568394002505e-15
   170   1      16.500334604233949      9.5264726254733656      2.0726871982339148
   171   1      17.769591112251945       10.25927821204824      4.1453743964678313
   172   1      19.038847620269941      10.992083798623113      6.2180615947017497
   173   1      20.308104128287937      11.724889385197987       8.290748792935668
   174   1      21.577360636305933       12.45769497177286      10.363435991169583
   175   1      16.500334604233949      10.992083798623113 -3.5527136788005009e-15
   176   1      17.769591112251945      11.724889385197988      2.0726871982339148
   177   1      19.038847620269941      12.457694971772861      4.1453743964678331
   178   1      20.308104128287937      13.190500558347736      6.2180615947017515
   179   1      21.577360636305933      13.923306144922609      8.2907487929356698
   180   1      22.846617144323929      14.656111731497484      10.363435991169585
   181   1      12.692565080179961 -1.7763568394002505e-15 -1.7763568394002505e-15
   182   1      13.961821588197957     0.73280558657487216      2.0726871982339157
   183   1      15.231078096215953      1.4656111731497461      4.1453743964678331
   184   1      16.500334604233949        2.19841675972462      6.2180615947017515
   185   1      17.769591112251945       2.931222346299494      8.2907487929356662
   186   1      19.038847620269941      3.6640279328743679      10.363435991169585
   187   1      13.961821588197957      2.1984167597246218 -1.7763568394002505e-15
   188   1      15.231078096215953      2.9312223462994957      2.0726871982339148
   189   1      16.500334604233949      3.6640279328743697      4.1453743964678331
   190   1      17.769591112251945      4.3968335194492436      6.2180615947017497
   191   1      19.038847620269941      5.1296391060241175      8.2907487929356662
   192   1      20.308104128287937      5.8624446925989915      10.363435991169586
   193   1      15.231078096215953      4.3968335194492445 -1.7763568394002505e-15
   194   1      16.500334604233949      5.1296391060241184      2.0726871982339148
   195   1      17.769591112251945      5.8624446925989924      4.1453743964678331
   196   1      19.038847620269941      6.5952502791738663      6.2180615947017497
   197   1      20.308104128287937      7.3280558657487402      8.2907487929356662
   198   1      21.577360636305933      8.0608614523236142      10.363435991169585
   199   1      16.500334604233949      6.5952502791738681 -1.7763568394002505e-15
   200   1      17.769591112251945       7.328055865748742      2.0726871982339148
   201   1      19.038847620269941      8.0608614523236159      4.1453743964678313
   202   1      20.308104128287937      8.7936670388984908      6.2180615947017497
   203   1      21.577360636305933      9.5264726254733638       8.290748792935668
   204   1      22.846617144323929      10.259278212048237      10.363435991169583
   205   1      17.769591112251945      8.7936670388984908 -3.5527136788005009e-15
   206   1      19.038847620269941      9.5264726254733638      2.0726871982339148
   207   1      20.308104128287937      10.259278212048239      4.1453743964678331
   208   1      21.577360636305933      10.992083798623112      6.2180615947017497
   209   1      22.846617144323929      11.724889385197987      8.2907487929356662
   210   1      24.115873652341925       12.45769497177286      10.363435991169585
   211   1      19.038847620269941      10.992083798623113 -1.7763568394002505e-15
   212   1      20.308104128287937      11.724889385197988      2.0726871982339148
   213   1      21.577360636305933      12.457694971772861      4.1453743964678331
   214   1      22.846617144323929      13.190500558347736      6.2180615947017515
   215   1      24.115873652341925      13.923306144922609      8.2907487929356662
   216   1      25.385130160359921      14.656111731497484      10.363435991169585
